ITEM: TIMESTEP
0
ITEM: NUMBER OF ATOMS
18612
ITEM: BOX BOUNDS ss pp pp
-62.1375 116.228
0 31.68
0 35.8971
ITEM: ATOMS id type x y z c_cna c_csd 
100 4 -61.1019 2.45082e-05 2.07845 5 18.5856 
101 4 -60.7567 1.76002 0.352626 5 12.3904 
102 4 -59.376 1.76002 2.42361 1 6.9988e-16 
103 4 -59.0309 2.45082e-05 0.697791 1 2.09796e-15 
416 4 -57.3051 1.76002 1.04296 1 7.9992e-16 
418 4 -55.5792 2.45082e-05 1.38812 1 4e-16 
776 4 -53.8534 1.76002 1.73328 1 4.03176e-09 
778 1 -52.1276 1.60789e-05 2.07842 1 1.25198e-08 
811 4 -53.5083 2.45082e-05 0.00746194 1 9.10837e-09 
812 1 -51.7824 1.76001 0.352582 1 7.77717e-09 
1154 1 -50.4018 1.75999 2.42351 1 2.77544e-09 
1189 1 -50.0566 1.73489e-06 0.697672 1 4.40865e-09 
1190 1 -48.3308 1.75998 1.04273 1 3.27813e-09 
1550 1 -44.8792 1.75998 1.73286 1 6.53826e-09 
1919 1 -42.8082 1.75999 0.352102 1 5.04148e-09 
1920 1 -41.4276 1.75997 2.423 1 2.65649e-09 
2288 1 -39.3566 1.75998 1.04221 1 3.52494e-09 
2648 1 -35.905 1.75999 1.73224 1 4.53403e-09 
2684 1 -33.8341 1.75999 0.351394 1 6.51755e-09 
3026 1 -32.4534 1.75998 2.42223 1 3.13829e-09 
3062 1 -30.3824 1.75998 1.04137 1 2.95517e-09 
3422 1 -26.9308 1.75999 1.73132 1 3.08377e-09 
3791 1 -24.8598 1.75998 0.35043 1 6.1421e-09 
3792 1 -23.4792 1.75999 2.42127 1 9.6799e-09 
4160 1 -21.4083 1.75997 1.04035 1 3.12307e-08 
4520 1 -17.9567 1.75997 1.73019 1 1.95511e-07 
4556 1 -15.8858 1.75998 0.349347 1 1.52932e-06 
4898 1 -14.5044 1.75996 2.41952 1 1.00142e-05 
4933 1 -14.1593 7.7596e-06 0.693923 1 3.60851e-06 
4934 1 -12.4325 1.76 1.03803 1 4.48286e-05 
5293 1 -10.7066 2.05314e-05 1.38213 1 0.000165863 
5294 1 -8.9846 1.75996 1.72781 1 0.000199 
5662 1 -7.26923 4.59847e-05 2.07754 1 0.00132925 
5663 1 -6.91138 1.75992 0.344507 1 0.00140898 
5664 1 -5.55289 1.7599 2.42993 1 0.0123206 
5665 1 -5.20121 0.000154766 0.709633 1 0.00581177 
6032 1 -3.48089 1.75983 1.09545 1 0.0915424 
6034 1 -1.80204 4.19141e-05 1.48988 1 0.532387 
6730 2 -0.0519118 1.76002 1.65455 5 1.07476 
7090 2 3.37896 1.7602 1.09564 1 0.0900599 
7125 2 5.44966 1.76012 2.42943 1 0.0124033 
7468 2 6.80843 1.76014 0.343876 1 0.00132328 
7503 2 8.88155 1.76006 1.7264 1 0.000192123 
7865 2 10.6036 3.96749e-05 1.38027 1 0.000165692 
7863 2 12.3297 1.76005 1.03572 1 4.60172e-05 
8234 2 14.0567 6.9447e-05 0.691215 1 3.67656e-06 
8231 2 14.4017 1.76003 2.41664 1 1.03416e-05 
8232 2 15.7833 1.76006 0.346193 1 1.8336e-06 
8235 2 16.1281 4.8462e-05 2.07165 1 1.01582e-06 
8601 2 17.8543 1.76005 1.72646 1 3.00094e-07 
8603 2 17.5093 6.34378e-05 0.000821172 1 1.05797e-06 
8604 2 19.5803 5.61943e-05 1.3811 1 2.20074e-07 
8962 2 21.3061 1.76006 1.03568 1 4.44897e-08 
8964 2 23.032 7.48144e-05 0.690242 1 1.32745e-08 
8997 2 23.3771 1.76006 2.41604 1 1.63814e-08 
9340 2 24.7578 1.76006 0.344854 1 4.66594e-09 
9375 2 26.8288 1.76006 1.72527 1 4.95261e-09 
9377 2 25.103 6.83247e-05 2.07065 1 3.44403e-09 
104 4 -61.1019 3.52002 2.07845 5 18.5856 
107 4 -59.0309 3.52002 0.697791 1 2.09796e-15 
422 4 -55.5792 3.52002 1.38812 1 4e-16 
782 1 -52.1276 3.52001 2.07842 1 1.04559e-08 
813 4 -53.5083 3.52002 0.00746194 1 1.00755e-08 
1158 1 -50.4018 5.27999 2.4235 1 3.42778e-09 
1191 1 -50.0566 3.51999 0.697672 1 3.64462e-09 
1192 1 -48.3308 5.27998 1.04274 1 2.15555e-09 
1552 1 -46.605 3.51997 1.38781 1 1.56539e-09 
1553 1 -44.8792 5.27998 1.73289 1 2.3328e-09 
1554 1 -44.534 3.51999 0.00704511 1 2.83852e-09 
1922 1 -43.1534 3.51999 2.07795 1 4.58374e-09 
1923 1 -42.8082 5.27999 0.352106 1 7.94925e-10 
1924 1 -41.4276 5.27999 2.423 1 4.56038e-09 
1925 1 -41.0824 3.51999 0.697163 1 3.19173e-09 
2292 1 -39.3566 5.27998 1.0422 1 2.52513e-09 
2294 1 -37.6308 3.51999 1.38723 1 7.38103e-09 
2652 1 -35.905 5.27998 1.73224 1 4.94491e-09 
2654 1 -34.1792 3.51999 2.07723 1 1.68179e-09 
2685 1 -35.5599 3.51999 0.00639834 1 1.1066e-08 
2686 1 -33.834 5.27997 0.351396 1 3.56376e-09 
3030 1 -32.4534 5.27997 2.42222 1 1.54562e-09 
3063 1 -32.1082 3.51997 0.696388 1 4.00189e-09 
3064 1 -30.3824 5.27996 1.04136 1 2.44066e-09 
3424 1 -28.6566 3.51998 1.38634 1 3.58918e-09 
3425 1 -26.9308 5.27996 1.73129 1 4.58897e-09 
3426 1 -26.5856 3.51997 0.00545591 1 7.73223e-09 
3794 1 -25.205 3.51998 2.07629 1 2.57375e-09 
3795 1 -24.8598 5.27996 0.350387 1 9.35063e-09 
3796 1 -23.4792 5.27997 2.42123 1 6.28166e-09 
3797 1 -23.134 3.51997 0.695362 1 4.26803e-09 
4164 1 -21.4083 5.27997 1.04031 1 2.83999e-08 
4166 1 -19.6825 3.51996 1.38529 1 1.55104e-07 
4524 1 -17.9566 5.27995 1.7302 1 2.15428e-07 
4557 1 -17.6117 3.51996 0.00443316 1 8.68103e-07 
4526 1 -16.2306 3.51995 2.07495 1 1.10462e-06 
4558 1 -15.8857 5.27995 0.349374 1 1.62812e-06 
4902 1 -14.5044 5.27993 2.41953 1 1.05292e-05 
4935 1 -14.1593 3.51996 0.693946 1 3.72277e-06 
4936 1 -12.4324 5.27994 1.03803 1 4.64775e-05 
5296 1 -10.7065 3.51996 1.38214 1 0.000167077 
5297 1 -8.98464 5.27995 1.72789 1 0.0001938 
5666 1 -7.26927 3.51985 2.07758 1 0.00134194 
5667 1 -6.91157 5.27997 0.344816 1 0.00132992 
5668 1 -5.55332 5.27996 2.43013 1 0.0125741 
5669 1 -5.20143 3.51964 0.709726 1 0.00589861 
6038 1 -1.80204 3.51967 1.49008 1 0.531186 
6731 2 1.69861 3.52039 1.48961 1 0.530278 
7091 2 5.09791 3.52041 0.709216 1 0.00586946 
7501 2 7.16595 3.52016 2.07649 1 0.00132462 
7861 2 10.6036 3.52005 1.38024 1 0.000165457 
8230 2 14.0567 3.52004 0.691211 1 3.57974e-06 
8233 2 16.1281 3.52002 2.07164 1 1.035e-06 
8600 2 17.5093 3.52005 0.000809528 1 1.00411e-06 
8602 2 19.5802 3.52005 1.38109 1 2.02906e-07 
8963 2 23.0319 3.52004 0.690252 1 7.04322e-09 
9373 2 25.103 3.52004 2.07065 1 3.33919e-09 
105 4 -60.7567 5.28002 0.352626 5 12.3904 
108 4 -61.1019 7.04002 2.07845 5 18.5856 
106 4 -59.376 5.28002 2.42361 1 6.9988e-16 
111 4 -59.0309 7.04002 0.697791 1 2.09796e-15 
420 4 -57.3051 5.28002 1.04296 1 7.9992e-16 
426 4 -55.5792 7.04002 1.38812 1 4e-16 
780 4 -53.8534 5.28002 1.73328 1 5.08358e-09 
786 1 -52.1276 7.04002 2.07842 1 1.04619e-08 
815 4 -53.5083 7.04002 0.00746194 1 7.94601e-09 
814 1 -51.7824 5.28001 0.352575 1 3.11207e-09 
1193 1 -50.0566 7.04 0.697676 1 1.80138e-09 
1555 1 -46.605 7.03997 1.38782 1 2.33655e-09 
1557 1 -44.534 7.03998 0.00704144 1 3.26067e-09 
1926 1 -43.1534 7.03998 2.07795 1 2.06937e-09 
1929 1 -41.0824 7.03999 0.697169 1 3.11789e-09 
2298 1 -37.6308 7.03998 1.38723 1 2.07246e-09 
2658 1 -34.1792 7.03996 2.07723 1 1.83619e-09 
2687 1 -35.5599 7.03997 0.00638645 1 2.7121e-09 
3065 1 -32.1082 7.03996 0.696378 1 2.57642e-09 
3427 1 -28.6566 7.03995 1.38633 1 4.61868e-09 
3429 1 -26.5856 7.03995 0.00540898 1 8.25523e-09 
3798 1 -25.205 7.03995 2.07625 1 4.44613e-09 
3801 1 -23.134 7.03996 0.695317 1 7.8911e-09 
4170 1 -19.6825 7.03995 1.38529 1 1.68229e-07 
4559 1 -17.6116 7.03995 0.00445141 1 8.65198e-07 
4530 1 -16.2305 7.03993 2.07496 1 1.18254e-06 
4937 1 -14.1593 7.03993 0.693956 1 3.7167e-06 
5299 1 -10.7065 7.03993 1.38215 1 0.000167258 
5670 1 -7.26931 7.04005 2.07761 1 0.00134343 
5673 1 -5.20143 7.04032 0.709806 1 0.00587962 
6036 1 -3.4824 5.28005 1.09634 1 0.0909421 
6042 1 -1.80204 7.04043 1.4901 1 0.53155 
6728 2 -0.0512424 5.28005 1.65454 5 1.07485 
6729 2 1.6986 7.03967 1.48956 1 0.529688 
7088 2 3.37743 5.28002 1.09473 1 0.0906522 
7089 2 5.09788 7.03973 0.70916 1 0.00589196 
7121 2 5.44923 5.28006 2.42926 1 0.0121387 
7466 2 6.80817 5.28007 0.343552 1 0.00140705 
7497 2 7.16593 7.03995 2.07644 1 0.0013256 
7499 2 8.8815 5.28005 1.72628 1 0.000199058 
7857 2 10.6036 7.04003 1.38021 1 0.000166679 
7859 2 12.3297 5.28004 1.0357 1 4.46006e-05 
8226 2 14.0567 7.04004 0.691188 1 3.60092e-06 
8227 2 14.4017 5.28002 2.41663 1 1.02648e-05 
8228 2 15.7833 5.28004 0.346174 1 1.85964e-06 
8229 2 16.128 7.04002 2.07163 1 1.07315e-06 
8597 2 17.5093 7.04003 0.000801838 1 1.04934e-06 
8598 2 17.8542 5.28003 1.72645 1 2.76794e-07 
8599 2 19.5802 7.04003 1.38109 1 2.09968e-07 
8960 2 21.3061 5.28003 1.03568 1 6.86523e-08 
8961 2 23.0319 7.04002 0.690252 1 6.54474e-09 
8993 2 23.3771 5.28002 2.41604 1 2.00635e-08 
9338 2 24.7578 5.28002 0.344845 1 1.13278e-08 
9369 2 25.103 7.04001 2.07063 1 5.89077e-09 
9371 2 26.8288 5.28002 1.72526 1 6.72165e-09 
109 4 -60.7567 8.80002 0.352626 5 12.3904 
110 4 -59.376 8.80002 2.42361 1 6.99881e-16 
424 4 -57.3051 8.80002 1.04296 1 7.9992e-16 
784 4 -53.8534 8.80002 1.73328 1 4.14011e-09 
816 1 -51.7824 8.80002 0.35258 1 4.06749e-09 
1162 1 -50.4018 8.80001 2.42351 1 1.94333e-09 
1194 1 -48.3308 8.79999 1.04276 1 1.67137e-09 
1556 1 -44.8792 8.79997 1.73291 1 4.19094e-09 
1558 1 -46.605 10.56 1.38784 1 3.53272e-09 
1560 1 -44.534 10.56 0.00709002 1 2.93513e-09 
1927 1 -42.8082 8.79998 0.352127 1 2.50408e-09 
1930 1 -43.1534 10.56 2.078 1 3.5269e-09 
1928 1 -41.4276 8.79997 2.42304 1 3.67802e-09 
1933 1 -41.0824 10.56 0.697214 1 5.89009e-09 
2296 1 -39.3566 8.79998 1.04222 1 2.299e-09 
2302 1 -37.6308 10.56 1.38726 1 2.015e-09 
2656 1 -35.905 8.79996 1.73225 1 3.1908e-09 
2662 1 -34.1792 10.5599 2.07726 1 4.17358e-09 
2689 1 -35.5598 10.56 0.00639785 1 9.59789e-10 
2688 1 -33.834 8.79995 0.351384 1 3.07076e-09 
3034 1 -32.4534 8.79994 2.42223 1 2.05282e-09 
3067 1 -32.1082 10.5599 0.696379 1 3.3675e-09 
3066 1 -30.3824 8.79995 1.04136 1 4.32681e-09 
3428 1 -26.9308 8.79994 1.73127 1 1.37386e-08 
3430 1 -28.6566 10.5599 1.38634 1 7.3065e-09 
3432 1 -26.5856 10.56 0.00541867 1 3.8199e-09 
3799 1 -24.8598 8.79995 0.350347 1 1.46131e-08 
3802 1 -25.205 10.5599 2.07624 1 2.82973e-09 
3800 1 -23.4792 8.79994 2.42119 1 8.6881e-09 
3805 1 -23.134 10.5599 0.69531 1 9.81961e-09 
4168 1 -21.4083 8.79995 1.04029 1 2.06867e-08 
4174 1 -19.6825 10.5599 1.38526 1 1.16278e-07 
4528 1 -17.9566 8.79995 1.7302 1 2.11597e-07 
4561 1 -17.6116 10.56 0.00442921 1 8.12122e-07 
4534 1 -16.2305 10.56 2.07494 1 1.18002e-06 
4560 1 -15.8857 8.79995 0.349368 1 1.56943e-06 
4906 1 -14.5044 8.79995 2.41952 1 1.05363e-05 
4939 1 -14.1592 10.56 0.693947 1 3.78196e-06 
4938 1 -12.4324 8.79994 1.03803 1 4.57166e-05 
5300 1 -8.98463 8.79996 1.72782 1 0.000199712 
5302 1 -10.7065 10.56 1.38213 1 0.000168168 
5671 1 -6.91146 8.80001 0.344552 1 0.00141105 
5674 1 -7.26936 10.5599 2.07763 1 0.00134391 
5672 1 -5.55297 8.80002 2.43002 1 0.0123144 
5677 1 -5.20147 10.5597 0.709837 1 0.00588854 
6040 1 -3.48086 8.80004 1.09555 1 0.091615 
6046 1 -1.80207 10.5596 1.49018 1 0.531527 
6726 2 -0.0519296 8.80005 1.65458 5 1.07482 
7086 2 3.37901 8.80005 1.09558 1 0.0900031 
7117 2 5.44963 8.80001 2.42939 1 0.0124132 
7464 2 6.80829 8.80002 0.343804 1 0.00132869 
7495 2 8.8815 8.80001 1.72632 1 0.000194505 
7855 2 12.3297 8.80003 1.03569 1 4.60154e-05 
8223 2 14.4017 8.80001 2.41661 1 1.05371e-05 
8224 2 15.7833 8.80002 0.346171 1 1.92589e-06 
8595 2 17.8542 8.80001 1.72645 1 3.15241e-07 
8958 2 21.3061 8.80002 1.03568 1 4.45432e-08 
8989 2 23.3771 8.8 2.41604 1 1.17379e-08 
9336 2 24.7578 8.80001 0.344871 1 6.23993e-09 
9367 2 26.8288 8.79999 1.72526 1 6.71699e-09 
112 4 -61.1019 10.56 2.07845 5 18.5856 
113 4 -60.7567 12.32 0.352626 5 12.3904 
114 4 -59.376 12.32 2.42361 1 6.9988e-16 
115 4 -59.0309 10.56 0.697791 1 2.09796e-15 
428 4 -57.3051 12.32 1.04296 1 7.9992e-16 
430 4 -55.5792 10.56 1.38812 1 4e-16 
788 4 -53.8534 12.32 1.73328 1 4.01847e-09 
790 1 -52.1276 10.56 2.07842 1 7.07252e-09 
817 4 -53.5083 10.56 0.00746194 1 7.89688e-09 
818 1 -51.7824 12.32 0.352584 1 3.21315e-09 
1166 1 -50.4018 12.32 2.42352 1 1.90595e-09 
1195 1 -50.0566 10.56 0.69768 1 3.05854e-09 
1196 1 -48.3308 12.32 1.04276 1 1.30634e-09 
1559 1 -44.8792 12.32 1.73295 1 4.05915e-09 
1931 1 -42.8082 12.32 0.352192 1 9.93353e-09 
1932 1 -41.4276 12.32 2.42308 1 5.25455e-09 
2300 1 -39.3566 12.32 1.04227 1 4.1905e-09 
2660 1 -35.905 12.32 1.73228 1 3.16628e-09 
2690 1 -33.834 12.3199 0.351405 1 4.20108e-09 
3038 1 -32.4533 12.3199 2.42225 1 1.05575e-08 
3068 1 -30.3824 12.3199 1.04138 1 7.58971e-09 
3431 1 -26.9308 12.3199 1.73131 1 3.07485e-09 
3803 1 -24.8598 12.3199 0.350379 1 3.89819e-09 
3804 1 -23.4792 12.3199 2.42121 1 8.4253e-09 
4172 1 -21.4083 12.3199 1.04028 1 1.80035e-08 
4532 1 -17.9566 12.32 1.73017 1 2.00536e-07 
4562 1 -15.8857 12.32 0.349355 1 1.59332e-06 
4910 1 -14.5043 12.32 2.41951 1 1.0685e-05 
4940 1 -12.4324 12.32 1.03801 1 4.69414e-05 
5303 1 -8.98469 12.32 1.72789 1 0.0001939 
5675 1 -6.91164 12.32 0.344845 1 0.00132875 
5676 1 -5.55339 12.32 2.4302 1 0.0125841 
6044 1 -3.48247 12.3201 1.09642 1 0.0909066 
6724 2 -0.0512515 12.32 1.65463 5 1.07486 
6727 2 1.6986 10.5605 1.48964 1 0.529985 
7084 2 3.37741 12.32 1.0948 1 0.0907667 
7087 2 5.09789 10.5603 0.709189 1 0.00589439 
7113 2 5.44924 12.32 2.42923 1 0.0121532 
7462 2 6.80815 12.32 0.343527 1 0.0014067 
7491 2 8.88148 12.32 1.72624 1 0.000199792 
7493 2 7.16594 10.5601 2.07642 1 0.00132863 
7853 2 10.6036 10.56 1.38019 1 0.000167714 
7851 2 12.3297 12.32 1.03569 1 4.4751e-05 
8222 2 14.0567 10.56 0.691182 1 3.60246e-06 
8219 2 14.4017 12.32 2.41661 1 1.03128e-05 
8220 2 15.7833 12.32 0.34617 1 1.87613e-06 
8225 2 16.128 10.56 2.07163 1 1.05952e-06 
8592 2 17.8543 12.32 1.72645 1 3.0065e-07 
8594 2 17.5093 10.56 0.000803442 1 1.02358e-06 
8596 2 19.5802 10.56 1.38108 1 2.02969e-07 
8956 2 21.3061 12.32 1.03568 1 3.56629e-08 
8959 2 23.0319 10.56 0.690268 1 4.05993e-09 
8985 2 23.3771 12.32 2.41606 1 1.28216e-08 
9334 2 24.7578 12.32 0.344899 1 3.65552e-09 
9363 2 26.8288 12.32 1.72529 1 2.83543e-09 
9365 2 25.103 10.56 2.07066 1 2.53092e-09 
116 4 -61.1019 14.08 2.07845 5 18.5856 
119 4 -59.0309 14.08 0.697791 1 2.09796e-15 
434 4 -55.5792 14.08 1.38812 1 4e-16 
794 1 -52.1276 14.08 2.07841 1 5.89407e-09 
819 4 -53.5083 14.08 0.00746194 1 6.84897e-09 
1197 1 -50.0566 14.08 0.697681 1 2.12088e-09 
1561 1 -46.605 14.08 1.38785 1 1.61402e-09 
1563 1 -44.534 14.08 0.00711854 1 3.18722e-09 
1934 1 -43.1534 14.08 2.07804 1 5.20412e-09 
1936 1 -41.4275 15.84 2.4231 1 8.21507e-09 
1937 1 -41.0824 14.08 0.697256 1 4.95844e-09 
2306 1 -37.6308 14.08 1.3873 1 4.70215e-09 
2664 1 -35.9049 15.84 1.73229 1 3.19983e-09 
2666 1 -34.1791 14.0799 2.07727 1 2.60732e-09 
2691 1 -35.5598 14.08 0.00643031 1 3.73022e-09 
2692 1 -33.834 15.84 0.351426 1 3.12675e-09 
3042 1 -32.4533 15.8399 2.42226 1 2.74036e-09 
3069 1 -32.1082 14.0799 0.696402 1 4.24295e-09 
3070 1 -30.3824 15.8399 1.04138 1 3.83807e-09 
3433 1 -28.6566 14.0799 1.38636 1 5.46307e-09 
3434 1 -26.9308 15.8399 1.73134 1 1.56212e-08 
3435 1 -26.5856 14.0799 0.00544946 1 9.94703e-09 
3806 1 -25.205 14.0799 2.07628 1 9.41438e-09 
3807 1 -24.8598 15.84 0.350399 1 4.88995e-09 
3808 1 -23.4792 15.8399 2.42122 1 7.92228e-09 
3809 1 -23.134 14.0799 0.695333 1 5.88021e-09 
4176 1 -21.4083 15.84 1.04029 1 3.5464e-08 
4178 1 -19.6825 14.08 1.38525 1 1.19957e-07 
4536 1 -17.9566 15.84 1.73017 1 2.07226e-07 
4563 1 -17.6116 14.08 0.00441335 1 7.99035e-07 
4538 1 -16.2305 14.08 2.07493 1 1.14254e-06 
4941 1 -14.1593 14.08 0.693936 1 3.74002e-06 
5305 1 -10.7065 14.08 1.38212 1 0.000167754 
5678 1 -7.26935 14.0801 2.07764 1 0.0013413 
5681 1 -5.20148 14.0803 0.709827 1 0.00588538 
6050 1 -1.80207 14.0805 1.49017 1 0.531504 
6725 2 1.69861 14.0796 1.48962 1 0.530095 
7085 2 5.09787 14.0797 0.70916 1 0.00588911 
7489 2 7.16593 14.0799 2.07641 1 0.00132782 
7849 2 10.6036 14.08 1.38019 1 0.000167791 
8218 2 14.0567 14.08 0.691189 1 3.55095e-06 
8221 2 16.1281 14.08 2.07163 1 1.00896e-06 
8591 2 17.5093 14.08 0.000808514 1 9.6989e-07 
8593 2 19.5802 14.08 1.38111 1 1.91842e-07 
8957 2 23.0319 14.08 0.690293 1 8.39894e-09 
9361 2 25.103 14.08 2.07066 1 3.7464e-09 
117 4 -60.7567 15.84 0.352626 5 12.3904 
120 4 -61.1019 17.6 2.07845 5 18.5856 
118 4 -59.376 15.84 2.42361 1 6.9988e-16 
123 4 -59.0309 17.6 0.697791 1 2.09796e-15 
432 4 -57.3051 15.84 1.04296 1 7.9992e-16 
438 4 -55.5792 17.6 1.38812 1 4e-16 
792 4 -53.8534 15.84 1.73328 1 3.66901e-09 
798 1 -52.1276 17.6 2.07842 1 6.10637e-09 
821 4 -53.5083 17.6 0.00746194 1 7.46086e-09 
820 1 -51.7824 15.84 0.352589 1 5.10974e-09 
1170 1 -50.4018 15.84 2.42353 1 2.9126e-09 
1199 1 -50.0566 17.6 0.697689 1 2.69018e-09 
1198 1 -48.3308 15.84 1.04277 1 5.80901e-10 
1562 1 -44.8792 15.84 1.73296 1 3.91573e-09 
1564 1 -46.605 17.6 1.38786 1 2.0377e-09 
1566 1 -44.534 17.6 0.00711403 1 4.02508e-09 
1935 1 -42.8082 15.84 0.352206 1 8.63771e-09 
1938 1 -43.1533 17.6 2.07804 1 7.31718e-09 
1941 1 -41.0824 17.6 0.697254 1 4.55628e-09 
2304 1 -39.3566 15.84 1.0423 1 8.61796e-09 
2310 1 -37.6307 17.6 1.3873 1 7.31714e-09 
2670 1 -34.1791 17.6 2.07728 1 2.50858e-09 
2693 1 -35.5598 17.6 0.00644521 1 2.14353e-09 
3071 1 -32.1082 17.6 0.696416 1 1.92206e-09 
3436 1 -28.6566 17.5999 1.38636 1 7.5803e-09 
3438 1 -26.5856 17.6 0.00546137 1 5.68124e-09 
3810 1 -25.205 17.6 2.07629 1 2.97248e-09 
3813 1 -23.1341 17.6 0.695341 1 5.72825e-09 
4182 1 -19.6825 17.6 1.38526 1 1.48809e-07 
4565 1 -17.6117 17.6 0.00440675 1 8.73283e-07 
4542 1 -16.2306 17.6 2.07492 1 1.10897e-06 
4564 1 -15.8857 15.84 0.349341 1 1.54599e-06 
4914 1 -14.5044 15.84 2.4195 1 1.03105e-05 
4943 1 -14.1593 17.6001 0.693927 1 3.70086e-06 
4942 1 -12.4324 15.8401 1.03801 1 4.50887e-05 
5306 1 -8.98464 15.8401 1.72781 1 0.000199506 
5308 1 -10.7065 17.6001 1.38211 1 0.000167464 
5679 1 -6.91148 15.8401 0.344548 1 0.00140951 
5682 1 -7.26931 17.6 2.0776 1 0.00134033 
5680 1 -5.55298 15.8401 2.43003 1 0.0123118 
5685 1 -5.20145 17.5997 0.709785 1 0.0058829 
6048 1 -3.48088 15.84 1.09556 1 0.0915978 
6054 1 -1.80206 17.5996 1.49009 1 0.531466 
6722 2 -0.0518969 15.84 1.65458 5 1.07486 
6723 2 1.69862 17.6004 1.48957 1 0.529993 
7082 2 3.379 15.84 1.09554 1 0.0900413 
7083 2 5.09789 17.6003 0.709113 1 0.00588789 
7109 2 5.44964 15.84 2.42934 1 0.012409 
7460 2 6.80829 15.84 0.343765 1 0.0013331 
7485 2 7.16596 17.6001 2.07638 1 0.0013238 
7487 2 8.88152 15.84 1.72629 1 0.000194679 
7845 2 10.6036 17.6 1.38018 1 0.000167094 
7847 2 12.3297 15.84 1.03569 1 4.50835e-05 
8214 2 14.0568 17.6 0.691188 1 3.54307e-06 
8215 2 14.4018 15.84 2.41663 1 1.00429e-05 
8216 2 15.7833 15.84 0.34618 1 1.90892e-06 
8217 2 16.1281 17.6 2.07163 1 1.02961e-06 
8588 2 17.5093 17.6 0.000810307 1 1.02231e-06 
8589 2 17.8543 15.84 1.72645 1 2.6679e-07 
8590 2 19.5803 17.6 1.3811 1 2.22612e-07 
8954 2 21.3061 15.84 1.0357 1 4.58801e-08 
8955 2 23.0319 17.6 0.690269 1 6.29634e-09 
8981 2 23.3771 15.84 2.41604 1 1.15423e-08 
9332 2 24.7578 15.84 0.344877 1 6.32918e-09 
9357 2 25.103 17.6 2.07063 1 4.05078e-09 
9359 2 26.8288 15.84 1.72526 1 7.8235e-09 
121 4 -60.7567 19.36 0.352626 5 12.3904 
122 4 -59.376 19.36 2.42361 1 6.9988e-16 
436 4 -57.3051 19.36 1.04296 1 7.9992e-16 
796 4 -53.8534 19.36 1.73328 1 3.56533e-09 
822 1 -51.7824 19.36 0.352587 1 3.61025e-09 
1174 1 -50.4018 19.36 2.42354 1 8.48952e-09 
1200 1 -48.3308 19.36 1.04278 1 1.50484e-09 
1565 1 -44.8792 19.36 1.73295 1 3.21284e-09 
1939 1 -42.8082 19.36 0.352186 1 4.27997e-09 
1940 1 -41.4275 19.36 2.42308 1 4.29467e-09 
2308 1 -39.3566 19.36 1.04227 1 5.71248e-09 
2314 1 -37.6307 21.12 1.38727 1 3.82023e-09 
2668 1 -35.9049 19.36 1.73229 1 1.23091e-08 
2694 1 -33.834 19.36 0.351431 1 2.55093e-09 
3046 1 -32.4533 19.36 2.42227 1 4.0691e-09 
3073 1 -32.1082 21.12 0.696412 1 1.67768e-09 
3072 1 -30.3824 19.36 1.0414 1 2.67611e-09 
3437 1 -26.9308 19.36 1.73134 1 5.91936e-09 
3439 1 -28.6566 21.12 1.38637 1 2.23488e-09 
3441 1 -26.5856 21.12 0.00546817 1 3.03008e-09 
3811 1 -24.8598 19.36 0.350403 1 5.62701e-09 
3814 1 -25.205 21.12 2.07629 1 2.89079e-09 
3812 1 -23.4792 19.36 2.42124 1 1.13255e-08 
3817 1 -23.1341 21.12 0.695361 1 2.44643e-09 
4180 1 -21.4083 19.36 1.0403 1 2.76232e-08 
4540 1 -17.9567 19.36 1.73017 1 2.21439e-07 
4566 1 -15.8858 19.36 0.349338 1 1.668e-06 
4918 1 -14.5044 19.36 2.41949 1 1.04285e-05 
4944 1 -12.4324 19.36 1.03799 1 4.65504e-05 
5309 1 -8.98462 19.3601 1.72783 1 0.00019572 
5683 1 -6.91156 19.3601 0.344756 1 0.0013364 
5684 1 -5.5533 19.3601 2.43013 1 0.0125645 
6052 1 -3.48241 19.36 1.09629 1 0.0908521 
6720 2 -0.051295 19.36 1.65451 5 1.07481 
6721 2 1.69859 21.1196 1.4895 1 0.530097 
7080 2 3.37744 19.3601 1.09472 1 0.0907821 
7081 2 5.09797 21.1197 0.709116 1 0.00586969 
7105 2 5.4493 19.36 2.42916 1 0.0121464 
7458 2 6.80824 19.36 0.343496 1 0.00140252 
7481 2 7.16604 21.1199 2.07637 1 0.00132776 
7483 2 8.88156 19.36 1.72622 1 0.00019872 
7843 2 12.3298 19.36 1.03568 1 4.43955e-05 
8211 2 14.4018 19.3601 2.4166 1 1.01454e-05 
8212 2 15.7833 19.36 0.346167 1 1.81834e-06 
8586 2 17.8543 19.3601 1.72643 1 2.67525e-07 
8952 2 21.3061 19.36 1.03567 1 3.9547e-08 
8977 2 23.3771 19.36 2.41601 1 1.12908e-08 
9330 2 24.7578 19.36 0.344859 1 5.41889e-09 
9355 2 26.8288 19.36 1.72525 1 3.99805e-09 
124 4 -61.1019 21.12 2.07845 5 18.5856 
125 4 -60.7567 22.88 0.352626 5 12.3904 
126 4 -59.376 22.88 2.42361 1 6.9988e-16 
127 4 -59.0309 21.12 0.697791 1 2.09796e-15 
440 4 -57.3051 22.88 1.04296 1 7.9992e-16 
442 4 -55.5792 21.12 1.38812 1 4e-16 
800 4 -53.8534 22.88 1.73328 1 3.11433e-09 
802 1 -52.1276 21.12 2.07842 1 2.98637e-09 
823 4 -53.5083 21.12 0.00746194 1 5.7124e-09 
824 1 -51.7824 22.88 0.35259 1 4.58373e-09 
1178 1 -50.4018 22.88 2.42354 1 3.42162e-09 
1201 1 -50.0566 21.12 0.697702 1 9.61886e-09 
1202 1 -48.3308 22.88 1.04278 1 9.98534e-10 
1567 1 -46.605 21.12 1.38786 1 2.40117e-09 
1568 1 -44.8792 22.8801 1.73294 1 7.12032e-09 
1569 1 -44.534 21.12 0.00710301 1 6.68589e-09 
1942 1 -43.1534 21.12 2.07801 1 5.41378e-09 
1943 1 -42.8082 22.88 0.352155 1 1.9601e-09 
1944 1 -41.4275 22.88 2.42306 1 4.67971e-09 
1945 1 -41.0824 21.12 0.697222 1 2.48219e-09 
2312 1 -39.3566 22.88 1.04224 1 3.23411e-09 
2672 1 -35.905 22.88 1.73228 1 2.51831e-09 
2674 1 -34.1791 21.12 2.07728 1 4.79812e-09 
2695 1 -35.5598 21.12 0.00642045 1 3.41802e-09 
2696 1 -33.834 22.88 0.35142 1 2.57968e-09 
3050 1 -32.4533 22.88 2.42228 1 2.32202e-09 
3074 1 -30.3824 22.88 1.04141 1 1.39115e-09 
3440 1 -26.9308 22.88 1.73134 1 3.94367e-09 
3815 1 -24.8599 22.88 0.350428 1 4.44455e-09 
3816 1 -23.4793 22.88 2.42125 1 5.678e-09 
4184 1 -21.4083 22.88 1.04032 1 2.7303e-08 
4186 1 -19.6826 21.12 1.38526 1 1.22684e-07 
4544 1 -17.9567 22.88 1.73019 1 2.28556e-07 
4567 1 -17.6117 21.12 0.00441647 1 8.41509e-07 
4546 1 -16.2306 21.12 2.07493 1 1.04384e-06 
4568 1 -15.8858 22.88 0.349357 1 1.63904e-06 
4922 1 -14.5044 22.88 2.4195 1 1.0335e-05 
4945 1 -14.1593 21.12 0.693922 1 3.66483e-06 
4946 1 -12.4325 22.88 1.038 1 4.49975e-05 
5311 1 -10.7065 21.1201 1.38209 1 0.000168373 
5312 1 -8.98458 22.8801 1.72776 1 0.00020037 
5686 1 -7.26925 21.1202 2.07754 1 0.00133841 
5687 1 -6.91133 22.8801 0.344455 1 0.00141471 
5688 1 -5.55285 22.8801 2.4299 1 0.0122957 
5689 1 -5.20138 21.1204 0.709691 1 0.00589534 
6056 1 -3.48083 22.8802 1.09537 1 0.091543 
6058 1 -1.80203 21.1204 1.49 1 0.531101 
6718 2 -0.0519535 22.88 1.65443 5 1.07479 
7078 2 3.37902 22.8799 1.09548 1 0.0899696 
7101 2 5.44973 22.88 2.42932 1 0.0123988 
7456 2 6.80848 22.88 0.343766 1 0.00132532 
7479 2 8.88161 22.88 1.72628 1 0.000193827 
7841 2 10.6037 21.12 1.38017 1 0.000167288 
7839 2 12.3297 22.8801 1.03567 1 4.58877e-05 
8210 2 14.0568 21.1201 0.691187 1 3.59568e-06 
8207 2 14.4018 22.8801 2.41659 1 1.04012e-05 
8208 2 15.7833 22.8801 0.346169 1 1.91575e-06 
8213 2 16.1281 21.1201 2.07161 1 1.03866e-06 
8583 2 17.8543 22.8801 1.72643 1 2.83646e-07 
8585 2 17.5093 21.1201 0.00080358 1 1.01251e-06 
8587 2 19.5803 21.1201 1.38107 1 2.13181e-07 
8950 2 21.3062 22.8801 1.03567 1 6.28583e-08 
8953 2 23.0319 21.1201 0.690235 1 1.47223e-08 
8973 2 23.3771 22.8801 2.41603 1 1.354e-08 
9328 2 24.7578 22.8801 0.344858 1 4.26921e-09 
9351 2 26.8288 22.88 1.72526 1 5.66183e-09 
9353 2 25.103 21.12 2.07063 1 3.84844e-09 
128 4 -61.1019 24.64 2.07845 5 18.5856 
131 4 -59.0309 24.64 0.697791 1 2.09796e-15 
446 4 -55.5792 24.64 1.38812 1 4e-16 
806 1 -52.1276 24.64 2.07842 1 3.60246e-09 
825 4 -53.5083 24.64 0.00746194 1 5.00555e-09 
1203 1 -50.0566 24.64 0.697698 1 4.97812e-09 
1570 1 -46.605 24.64 1.38786 1 5.52394e-09 
1572 1 -44.534 24.64 0.00707247 1 5.98188e-09 
1946 1 -43.1534 24.64 2.07798 1 4.51583e-09 
1947 1 -42.8082 26.4 0.352133 1 2.88694e-09 
1948 1 -41.4275 26.4 2.42304 1 7.10754e-09 
1949 1 -41.0824 24.64 0.697195 1 4.7426e-09 
2316 1 -39.3566 26.4 1.04224 1 4.65689e-09 
2318 1 -37.6308 24.64 1.38728 1 3.95266e-09 
2676 1 -35.905 26.4 1.73229 1 6.24827e-09 
2678 1 -34.1792 24.64 2.07728 1 2.31119e-09 
2697 1 -35.5598 24.64 0.00642322 1 1.63991e-09 
2698 1 -33.834 26.4 0.351451 1 8.04959e-09 
3054 1 -32.4533 26.4 2.42229 1 3.58585e-09 
3075 1 -32.1082 24.64 0.696436 1 3.18774e-09 
3442 1 -28.6566 24.64 1.38639 1 3.96464e-09 
3444 1 -26.5857 24.64 0.00548714 1 2.75883e-09 
3818 1 -25.205 24.64 2.07632 1 3.86794e-09 
3820 1 -23.4792 26.4 2.42127 1 5.10175e-09 
3821 1 -23.1341 24.64 0.695377 1 2.70562e-09 
4190 1 -19.6825 24.64 1.38531 1 1.45593e-07 
4569 1 -17.6117 24.64 0.00444664 1 8.1478e-07 
4550 1 -16.2306 24.64 2.07495 1 1.05381e-06 
4947 1 -14.1593 24.64 0.693947 1 3.55858e-06 
5314 1 -10.7065 24.64 1.3821 1 0.000167143 
5315 1 -8.98466 26.4 1.72784 1 0.00019351 
5690 1 -7.2692 24.6399 2.07752 1 0.00132554 
5691 1 -6.91162 26.3999 0.344716 1 0.00133847 
5692 1 -5.55313 26.3999 2.43001 1 0.0124367 
5693 1 -5.20117 24.6398 0.709614 1 0.00581191 
6062 1 -1.80206 24.6399 1.48977 1 0.532245 
6716 2 -0.0513927 26.4 1.65445 5 1.07472 
6719 2 1.69862 24.6401 1.48963 1 0.528824 
7076 2 3.37803 26.4 1.09503 1 0.0905718 
7079 2 5.09817 24.6402 0.709188 1 0.00594292 
7477 2 7.16606 24.6401 2.07641 1 0.00133642 
7837 2 10.6036 24.6401 1.38019 1 0.000167508 
8206 2 14.0568 24.6401 0.691187 1 3.66407e-06 
8209 2 16.1281 24.6401 2.07161 1 1.11024e-06 
8582 2 17.5094 24.6401 0.000801978 1 1.15526e-06 
8584 2 19.5803 24.6401 1.38108 1 2.52432e-07 
8951 2 23.032 24.6401 0.690257 1 8.46231e-09 
9349 2 25.103 24.6401 2.07064 1 5.11907e-09 
129 4 -60.7567 26.4 0.352626 5 12.3904 
132 4 -61.1019 28.16 2.07845 5 18.5856 
130 4 -59.376 26.4 2.42361 1 6.9988e-16 
135 4 -59.0309 28.16 0.697791 1 2.09796e-15 
444 4 -57.3051 26.4 1.04296 1 7.9992e-16 
450 4 -55.5792 28.16 1.38812 1 4e-16 
804 4 -53.8534 26.4 1.73328 1 2.38998e-09 
810 1 -52.1276 28.16 2.07843 1 1.05675e-08 
827 4 -53.5083 28.16 0.00746194 1 5.26503e-09 
826 1 -51.7824 26.4 0.352593 1 6.86331e-09 
1182 1 -50.4018 26.4 2.42353 1 2.95307e-09 
1205 1 -50.0566 28.16 0.69769 1 5.4602e-09 
1204 1 -48.3308 26.4 1.04277 1 3.91901e-09 
1571 1 -44.8792 26.4 1.73292 1 3.27508e-09 
1573 1 -46.605 28.16 1.38783 1 1.36316e-09 
1575 1 -44.534 28.16 0.00705684 1 2.28048e-09 
1950 1 -43.1534 28.16 2.07797 1 4.45964e-09 
1953 1 -41.0824 28.16 0.697189 1 4.90771e-09 
2322 1 -37.6308 28.16 1.38726 1 2.9222e-09 
2682 1 -34.1792 28.16 2.07728 1 2.56296e-09 
2699 1 -35.5598 28.16 0.00643211 1 3.71534e-09 
3077 1 -32.1082 28.16 0.696436 1 6.51036e-09 
3076 1 -30.3824 26.4 1.04142 1 2.78013e-09 
3443 1 -26.9308 26.4 1.73136 1 2.62976e-09 
3445 1 -28.6566 28.16 1.38639 1 7.0861e-09 
3447 1 -26.5856 28.16 0.00550001 1 5.54616e-09 
3819 1 -24.8599 26.4 0.350443 1 2.2635e-09 
3822 1 -25.205 28.16 2.07632 1 1.72595e-09 
3825 1 -23.1341 28.16 0.695393 1 4.30914e-09 
4188 1 -21.4083 26.4 1.04035 1 1.86703e-08 
4194 1 -19.6826 28.16 1.38531 1 1.64199e-07 
4548 1 -17.9567 26.4 1.73022 1 2.34619e-07 
4571 1 -17.6117 28.16 0.00444037 1 8.86658e-07 
4554 1 -16.2306 28.16 2.07495 1 1.08708e-06 
4570 1 -15.8858 26.4 0.349377 1 1.73582e-06 
4926 1 -14.5044 26.4 2.41951 1 1.03494e-05 
4949 1 -14.1593 28.16 0.693947 1 3.65835e-06 
4948 1 -12.4325 26.4 1.03802 1 4.54126e-05 
5317 1 -10.7066 28.16 1.38215 1 0.000163708 
5694 1 -7.26932 28.16 2.07756 1 0.00133004 
5697 1 -5.20157 28.16 0.70971 1 0.0058591 
6060 1 -3.48183 26.4 1.09587 1 0.0909478 
6066 1 -1.80197 28.16 1.49021 1 0.530969 
6717 2 1.69873 28.16 1.48939 1 0.530288 
7077 2 5.09782 28.16 0.7092 1 0.00590573 
7097 2 5.44943 26.4 2.42928 1 0.0122574 
7454 2 6.8082 26.4002 0.343574 1 0.0014002 
7473 2 7.16593 28.16 2.07645 1 0.00133246 
7475 2 8.88152 26.4001 1.72626 1 0.000200028 
7833 2 10.6036 28.1601 1.3802 1 0.000169138 
7835 2 12.3297 26.4001 1.03568 1 4.55344e-05 
8202 2 14.0567 28.1601 0.691207 1 3.63775e-06 
8203 2 14.4018 26.4001 2.41661 1 1.04043e-05 
8204 2 15.7833 26.4001 0.34618 1 1.89419e-06 
8205 2 16.1281 28.1601 2.07164 1 1.0591e-06 
8579 2 17.5094 28.1601 0.000816536 1 1.1161e-06 
8580 2 17.8543 26.4001 1.72644 1 2.84707e-07 
8581 2 19.5803 28.1601 1.38111 1 2.79197e-07 
8948 2 21.3062 26.4001 1.03568 1 6.87561e-08 
8949 2 23.032 28.1601 0.690263 1 8.73796e-09 
8969 2 23.3772 26.4001 2.41606 1 3.66069e-08 
9326 2 24.7578 26.4001 0.344852 1 1.1539e-08 
9345 2 25.103 28.1601 2.07065 1 4.41082e-09 
9347 2 26.8288 26.4001 1.72526 1 9.51858e-09 
133 4 -60.7567 29.92 0.352626 5 12.3904 
134 4 -59.376 29.92 2.42361 1 6.9988e-16 
448 4 -57.3051 29.92 1.04296 1 7.9992e-16 
808 4 -53.8534 29.92 1.73328 1 2.60439e-09 
828 1 -51.7824 29.92 0.352588 1 6.8611e-09 
1186 1 -50.4018 29.92 2.42352 1 2.61569e-09 
1206 1 -48.3308 29.92 1.04275 1 1.27948e-09 
1549 1 -46.605 31.68 1.3878 1 6.05072e-09 
1551 1 -44.534 31.68 0.00703867 1 1.7692e-09 
1574 1 -44.8792 29.92 1.73288 1 7.45163e-09 
1918 1 -43.1534 31.68 2.07794 1 4.01426e-09 
1951 1 -42.8082 29.92 0.352118 1 6.14589e-09 
1921 1 -41.0824 31.68 0.697168 1 1.45244e-09 
1952 1 -41.4275 29.92 2.42301 1 3.97302e-09 
2320 1 -39.3566 29.92 1.04222 1 3.21566e-09 
2290 1 -37.6308 31.68 1.38724 1 5.46852e-09 
2650 1 -34.1792 31.68 2.07725 1 2.05465e-09 
2680 1 -35.905 29.92 1.73226 1 2.74289e-09 
2683 1 -35.5599 31.68 0.00639539 1 7.60184e-09 
2700 1 -33.834 29.92 0.351413 1 4.46655e-09 
3058 1 -32.4534 29.92 2.42225 1 1.82837e-09 
3061 1 -32.1082 31.68 0.696389 1 2.308e-09 
3078 1 -30.3824 29.92 1.0414 1 2.23338e-09 
3421 1 -28.6566 31.68 1.38636 1 2.07751e-09 
3423 1 -26.5856 31.68 0.00549088 1 6.55345e-09 
3446 1 -26.9308 29.92 1.73135 1 4.00136e-09 
3790 1 -25.205 31.68 2.07632 1 7.47053e-09 
3823 1 -24.8598 29.92 0.350452 1 9.19141e-09 
3793 1 -23.1341 31.68 0.695397 1 4.60034e-09 
3824 1 -23.4792 29.92 2.42128 1 8.20596e-09 
4192 1 -21.4083 29.92 1.04036 1 2.77601e-08 
4162 1 -19.6825 31.68 1.3853 1 1.60791e-07 
4552 1 -17.9567 29.92 1.7302 1 2.11223e-07 