ITEM: TIMESTEP
0
ITEM: NUMBER OF ATOMS
16198
ITEM: BOX BOUNDS ss pp pp
-64.7649 114.085
0 32.3572
0 30.1777
ITEM: ATOMS id type x y z c_cna c_csd 
1 4 -64.7648 1.24451 0.718517 5 18.5856 
8 4 -62.7325 1.24451 2.15555 1 1.00006e-15 
11 4 -60.7003 5.25487e-16 1.43703 1 6e-16 
36 4 -60.7003 2.48902 1.43703 1 6e-16 
37 4 -58.668 1.24451 0.718517 1 4e-16 
53 4 -56.6357 1.24451 2.15555 1 2.09704e-09 
130 1 -54.6034 2.48902 1.43703 1 2.52949e-10 
131 1 -52.5711 1.24451 0.718517 1 4.95754e-12 
156 1 -50.5388 1.24451 2.15555 1 6.1794e-12 
306 1 -48.5065 2.48902 1.43703 1 3.99711e-10 
307 1 -46.4742 1.24451 0.718517 1 3.2004e-10 
338 1 -44.4418 1.24451 2.15555 1 1.21068e-09 
572 1 -42.4095 2.48902 1.43703 1 2.01027e-10 
573 1 -40.3771 1.24451 0.718517 1 5.41799e-10 
576 1 -38.3448 2.48902 5.48574e-10 1 3.02991e-09 
604 1 -38.3448 1.24451 2.15555 1 3.02983e-09 
922 1 -36.3124 2.48902 1.43703 1 5.65951e-10 
923 1 -34.2801 1.24451 0.718517 1 3.73757e-13 
926 1 -32.2477 2.48902 6.78531e-10 1 3.28611e-09 
954 1 -32.2477 1.24451 2.15555 1 3.28615e-09 
1353 1 -30.2154 2.48902 1.43703 1 3.33844e-10 
1354 1 -28.183 1.24451 0.718517 1 3.94289e-09 
1357 1 -26.1507 2.48902 1.10878e-09 1 3.0642e-09 
1385 1 -26.1507 1.24451 2.15555 1 3.06417e-09 
1846 1 -24.1183 2.48902 1.43703 1 2.80227e-10 
1847 1 -22.0859 1.24451 0.718517 1 4.94963e-11 
1850 1 -20.0535 2.48902 1.55556e-09 1 8.79489e-10 
1878 1 -20.0535 1.24451 2.15555 1 8.79468e-10 
2377 1 -18.0211 2.48902 1.43703 1 8.68128e-11 
2378 1 -15.9887 1.24451 0.718517 1 7.75345e-10 
2381 1 -13.9564 2.48902 1.96439e-09 1 3.17167e-10 
2409 1 -13.9564 1.24451 2.15555 1 3.17169e-10 
2922 1 -11.924 2.48902 1.43703 1 2.07403e-12 
2923 1 -9.89159 1.24451 0.718517 1 1.2869e-12 
2926 1 -7.8592 2.48902 2.54472e-09 1 3.07599e-10 
2954 1 -7.8592 1.24451 2.15555 1 3.0762e-10 
3468 1 -5.82682 2.48902 1.43703 1 1.13438e-08 
3469 1 -3.7945 1.24451 0.718517 1 7.6493e-08 
3472 1 -1.76234 2.48902 2.91781e-09 1 2.99591e-05 
3500 1 -1.76234 1.24451 2.15555 1 2.99591e-05 
4014 3 0.272975 2.48902 1.43703 2 6.1952 
6328 2 2.30831 1.24451 2.15555 1 3.05277e-05 
6331 2 2.30831 2.48902 2.92649e-09 1 3.05277e-05 
6361 2 4.34046 1.24451 0.718517 1 6.30882e-08 
6603 2 6.37275 2.48902 1.43703 1 3.05592e-09 
6600 2 8.40507 1.24451 2.15555 1 3.85278e-10 
6604 2 8.40507 2.48902 2.78853e-09 1 3.85244e-10 
6634 2 10.4374 1.24451 0.718517 1 1.52023e-11 
6960 2 12.4697 2.48902 1.43703 1 9.14352e-10 
6957 2 14.5021 1.24451 2.15555 1 2.78365e-12 
6961 2 14.5021 2.48902 2.35677e-09 1 2.785e-12 
6991 2 16.5344 1.24451 0.718517 1 5.78741e-12 
7398 2 18.5668 2.48902 1.43703 1 1.9904e-12 
7395 2 20.5991 1.24451 2.15555 1 1.27658e-11 
7399 2 20.5991 2.48902 2.12253e-09 1 1.27696e-11 
7429 2 22.6315 1.24451 0.718517 1 3.7844e-10 
2 4 -64.7648 3.73352 0.718517 5 18.5856 
20 4 -62.7325 3.73352 2.15555 1 1.00006e-15 
24 4 -60.7003 4.97803 1.43703 1 6e-16 
38 4 -58.668 3.73352 0.718517 1 4e-16 
102 4 -56.6357 3.73352 2.15555 1 2.09704e-09 
106 1 -54.6034 4.97803 1.43703 1 2.52949e-10 
132 1 -52.5711 3.73352 0.718517 1 4.95754e-12 
266 1 -50.5388 3.73352 2.15555 1 6.1794e-12 
270 1 -48.5065 4.97803 1.43703 1 3.99711e-10 
308 1 -46.4742 3.73352 0.718517 1 3.2004e-10 
529 1 -44.4418 3.73352 2.15555 1 1.21068e-09 
533 1 -42.4095 4.97803 1.43703 1 2.01027e-10 
574 1 -40.3771 3.73352 0.718517 1 5.41799e-10 
879 1 -38.3448 3.73352 2.15555 1 3.02983e-09 
882 1 -38.3448 4.97803 5.48575e-10 1 3.02991e-09 
883 1 -36.3124 4.97803 1.43703 1 5.65951e-10 
924 1 -34.2801 3.73352 0.718517 1 3.73757e-13 
1310 1 -32.2477 3.73352 2.15555 1 3.28615e-09 
1313 1 -32.2477 4.97803 6.78536e-10 1 3.28611e-09 
1314 1 -30.2154 4.97803 1.43703 1 3.33844e-10 
1355 1 -28.183 3.73352 0.718517 1 3.94289e-09 
1803 1 -26.1507 3.73352 2.15555 1 3.06417e-09 
1806 1 -26.1507 4.97803 1.10878e-09 1 3.0642e-09 
1807 1 -24.1183 4.97803 1.43703 1 2.80227e-10 
1848 1 -22.0859 3.73352 0.718517 1 4.94963e-11 
2334 1 -20.0535 3.73352 2.15555 1 8.79468e-10 
2337 1 -20.0535 4.97803 1.55557e-09 1 8.79489e-10 
2338 1 -18.0211 4.97803 1.43703 1 8.68128e-11 
2379 1 -15.9887 3.73352 0.718517 1 7.75345e-10 
2879 1 -13.9564 3.73352 2.15555 1 3.17169e-10 
2882 1 -13.9564 4.97803 1.96439e-09 1 3.17167e-10 
2883 1 -11.924 4.97803 1.43703 1 2.07403e-12 
2924 1 -9.89159 3.73352 0.718517 1 1.2869e-12 
3425 1 -7.8592 3.73352 2.15555 1 3.0762e-10 
3428 1 -7.8592 4.97803 2.54472e-09 1 3.07599e-10 
3429 1 -5.82682 4.97803 1.43703 1 1.13438e-08 
3470 1 -3.7945 3.73352 0.718517 1 7.6493e-08 
3971 1 -1.76234 3.73352 2.15555 1 2.99591e-05 
3974 1 -1.76234 4.97803 2.91781e-09 1 2.99591e-05 
3975 3 0.272975 4.97803 1.43703 2 6.1952 
6329 2 2.30831 3.73352 2.15555 1 3.05277e-05 
6563 2 2.30831 4.97803 2.92649e-09 1 3.05277e-05 
6560 2 4.34046 3.73352 0.718517 1 6.30882e-08 
6562 2 6.37275 4.97803 1.43703 1 3.05592e-09 
6601 2 8.40507 3.73352 2.15555 1 3.85278e-10 
6920 2 8.40507 4.97803 2.78852e-09 1 3.85244e-10 
6917 2 10.4374 3.73352 0.718517 1 1.52023e-11 
6919 2 12.4697 4.97803 1.43703 1 9.14352e-10 
6958 2 14.5021 3.73352 2.15555 1 2.78365e-12 
7355 2 16.5344 3.73352 0.718517 1 5.78741e-12 
7358 2 14.5021 4.97803 2.35677e-09 1 2.785e-12 
7357 2 18.5668 4.97803 1.43703 1 1.9904e-12 
7396 2 20.5991 3.73352 2.15555 1 1.27658e-11 
7856 2 20.5991 4.97803 2.12254e-09 1 1.27696e-11 
7853 2 22.6315 3.73352 0.718517 1 3.7844e-10 
12 4 -64.7648 6.22254 0.718517 5 18.5856 
21 4 -62.7325 6.22254 2.15555 1 1.00006e-15 
81 4 -60.7003 7.46705 1.43703 1 6e-16 
82 4 -58.668 6.22254 0.718517 1 4e-16 
103 4 -56.6357 6.22254 2.15555 1 2.09704e-09 
233 1 -54.6034 7.46705 1.43703 1 2.52949e-10 
234 1 -52.5711 6.22254 0.718517 1 4.95754e-12 
267 1 -50.5388 6.22254 2.15555 1 6.1794e-12 
488 1 -48.5065 7.46705 1.43703 1 3.99711e-10 
489 1 -46.4742 6.22254 0.718517 1 3.2004e-10 
530 1 -44.4418 6.22254 2.15555 1 1.21068e-09 
838 1 -42.4095 7.46705 1.43703 1 2.01027e-10 
839 1 -40.3771 6.22254 0.718517 1 5.41799e-10 
842 1 -38.3448 7.46705 5.48571e-10 1 3.02991e-09 
880 1 -38.3448 6.22254 2.15555 1 3.02983e-09 
1269 1 -36.3124 7.46705 1.43703 1 5.65951e-10 
1270 1 -34.2801 6.22254 0.718517 1 3.73757e-13 
1273 1 -32.2477 7.46705 6.78533e-10 1 3.28611e-09 
1311 1 -32.2477 6.22254 2.15555 1 3.28615e-09 
1762 1 -30.2154 7.46705 1.43703 1 3.33844e-10 
1763 1 -28.183 6.22254 0.718517 1 3.94289e-09 
1766 1 -26.1507 7.46705 1.10878e-09 1 3.0642e-09 
1804 1 -26.1507 6.22254 2.15555 1 3.06417e-09 
2293 1 -24.1183 7.46705 1.43703 1 2.80227e-10 
2294 1 -22.0859 6.22254 0.718517 1 4.94963e-11 
2297 1 -20.0535 7.46705 1.55556e-09 1 8.79489e-10 
2335 1 -20.0535 6.22254 2.15555 1 8.79468e-10 
2838 1 -18.0211 7.46705 1.43703 1 8.68128e-11 
2839 1 -15.9887 6.22254 0.718517 1 7.75345e-10 
2842 1 -13.9564 7.46705 1.96439e-09 1 3.17167e-10 
2880 1 -13.9564 6.22254 2.15555 1 3.17169e-10 
3384 1 -11.924 7.46705 1.43703 1 2.07403e-12 
3385 1 -9.89159 6.22254 0.718517 1 1.2869e-12 
3388 1 -7.8592 7.46705 2.54472e-09 1 3.07599e-10 
3426 1 -7.8592 6.22254 2.15555 1 3.0762e-10 
3930 1 -5.82682 7.46705 1.43703 1 1.13438e-08 
3931 1 -3.7945 6.22254 0.718517 1 7.6493e-08 
3934 1 -1.76234 7.46705 2.91781e-09 1 2.99591e-05 
3972 1 -1.76234 6.22254 2.15555 1 2.99591e-05 
4465 3 0.272975 7.46705 1.43703 2 6.1952 
6517 2 2.30831 6.22254 2.15555 1 3.05277e-05 
6520 2 2.30831 7.46705 2.92649e-09 1 3.05277e-05 
6561 2 4.34046 6.22254 0.718517 1 6.30882e-08 
6876 2 6.37275 7.46705 1.43703 1 3.05592e-09 
6873 2 8.40507 6.22254 2.15555 1 3.85278e-10 
6877 2 8.40507 7.46705 2.78852e-09 1 3.85244e-10 
6918 2 10.4374 6.22254 0.718517 1 1.52023e-11 
7314 2 12.4697 7.46705 1.43703 1 9.14352e-10 
7311 2 14.5021 6.22254 2.15555 1 2.78365e-12 
7315 2 14.5021 7.46705 2.35677e-09 1 2.785e-12 
7356 2 16.5344 6.22254 0.718517 1 5.78741e-12 
7812 2 18.5668 7.46705 1.43703 1 1.9904e-12 
7809 2 20.5991 6.22254 2.15555 1 1.27658e-11 
7813 2 20.5991 7.46705 2.12254e-09 1 1.27696e-11 
7854 2 22.6315 6.22254 0.718517 1 3.7844e-10 
13 4 -64.7648 8.71156 0.718517 5 18.5856 
65 4 -62.7325 8.71156 2.15555 1 1.00006e-15 
69 4 -60.7003 9.95606 1.43703 1 6e-16 
83 4 -58.668 8.71156 0.718517 1 4e-16 
205 4 -56.6357 8.71156 2.15555 1 2.09704e-09 
209 1 -54.6034 9.95606 1.43703 1 2.52949e-10 
235 1 -52.5711 8.71156 0.718517 1 4.95754e-12 
448 1 -50.5388 8.71156 2.15555 1 6.1794e-12 
452 1 -48.5065 9.95606 1.43703 1 3.99711e-10 
490 1 -46.4742 8.71156 0.718517 1 3.2004e-10 
795 1 -44.4418 8.71156 2.15555 1 1.21068e-09 
799 1 -42.4095 9.95606 1.43703 1 2.01027e-10 
840 1 -40.3771 8.71156 0.718517 1 5.41799e-10 
1226 1 -38.3448 8.71156 2.15555 1 3.02983e-09 
1229 1 -38.3448 9.95606 5.48568e-10 1 3.02991e-09 
1230 1 -36.3124 9.95606 1.43703 1 5.65951e-10 
1271 1 -34.2801 8.71156 0.718517 1 3.73757e-13 
1719 1 -32.2477 8.71156 2.15555 1 3.28615e-09 
1722 1 -32.2477 9.95606 6.78532e-10 1 3.28611e-09 
1723 1 -30.2154 9.95606 1.43703 1 3.33844e-10 
1764 1 -28.183 8.71156 0.718517 1 3.94289e-09 
2250 1 -26.1507 8.71156 2.15555 1 3.06417e-09 
2253 1 -26.1507 9.95606 1.10878e-09 1 3.0642e-09 
2254 1 -24.1183 9.95606 1.43703 1 2.80227e-10 
2295 1 -22.0859 8.71156 0.718517 1 4.94963e-11 
2795 1 -20.0535 8.71156 2.15555 1 8.79468e-10 
2798 1 -20.0535 9.95606 1.55556e-09 1 8.79489e-10 
2799 1 -18.0211 9.95606 1.43703 1 8.68128e-11 
2840 1 -15.9887 8.71156 0.718517 1 7.75345e-10 
3341 1 -13.9564 8.71156 2.15555 1 3.17169e-10 
3344 1 -13.9564 9.95606 1.96438e-09 1 3.17167e-10 
3345 1 -11.924 9.95606 1.43703 1 2.07403e-12 
3386 1 -9.89159 8.71156 0.718517 1 1.2869e-12 
3887 1 -7.8592 8.71156 2.15555 1 3.0762e-10 
3890 1 -7.8592 9.95606 2.54472e-09 1 3.07599e-10 
3891 1 -5.82682 9.95606 1.43703 1 1.13438e-08 
3932 1 -3.7945 8.71156 0.718517 1 7.6493e-08 
4422 1 -1.76234 8.71156 2.15555 1 2.99591e-05 
4425 1 -1.76234 9.95606 2.91781e-09 1 2.99591e-05 
4426 3 0.272975 9.95606 1.43703 2 6.1952 
6518 2 2.30831 8.71156 2.15555 1 3.05277e-05 
6836 2 2.30831 9.95606 2.92649e-09 1 3.05277e-05 
6833 2 4.34046 8.71156 0.718517 1 6.30882e-08 
6835 2 6.37275 9.95606 1.43703 1 3.05592e-09 
6874 2 8.40507 8.71156 2.15555 1 3.85278e-10 
7274 2 8.40507 9.95606 2.78853e-09 1 3.85244e-10 
7271 2 10.4374 8.71156 0.718517 1 1.52023e-11 
7273 2 12.4697 9.95606 1.43703 1 9.14352e-10 
7312 2 14.5021 8.71156 2.15555 1 2.78365e-12 
7769 2 16.5344 8.71156 0.718517 1 5.78741e-12 
7772 2 14.5021 9.95606 2.35677e-09 1 2.785e-12 
7771 2 18.5668 9.95606 1.43703 1 1.9904e-12 
7810 2 20.5991 8.71156 2.15555 1 1.27658e-11 
8306 2 20.5991 9.95606 2.12254e-09 1 1.27696e-11 
8303 2 22.6315 8.71156 0.718517 1 3.7844e-10 
57 4 -64.7648 11.2006 0.718517 5 18.5856 
66 4 -62.7325 11.2006 2.15555 1 1.00006e-15 
184 4 -60.7003 12.4451 1.43703 1 6e-16 
185 4 -58.668 11.2006 0.718517 1 4e-16 
206 4 -56.6357 11.2006 2.15555 1 2.09704e-09 
415 1 -54.6034 12.4451 1.43703 1 2.52949e-10 
416 1 -52.5711 11.2006 0.718517 1 4.95754e-12 
449 1 -50.5388 11.2006 2.15555 1 6.1794e-12 
754 1 -48.5065 12.4451 1.43703 1 3.99711e-10 
755 1 -46.4742 11.2006 0.718517 1 3.2004e-10 
796 1 -44.4418 11.2006 2.15555 1 1.21068e-09 
1185 1 -42.4095 12.4451 1.43703 1 2.01027e-10 
1186 1 -40.3771 11.2006 0.718517 1 5.41799e-10 
1189 1 -38.3448 12.4451 5.48572e-10 1 3.02991e-09 
1227 1 -38.3448 11.2006 2.15555 1 3.02983e-09 
1678 1 -36.3124 12.4451 1.43703 1 5.65951e-10 
1679 1 -34.2801 11.2006 0.718517 1 3.73757e-13 
1682 1 -32.2477 12.4451 6.78531e-10 1 3.28611e-09 
1720 1 -32.2477 11.2006 2.15555 1 3.28615e-09 
2209 1 -30.2154 12.4451 1.43703 1 3.33844e-10 
2210 1 -28.183 11.2006 0.718517 1 3.94289e-09 
2213 1 -26.1507 12.4451 1.10878e-09 1 3.0642e-09 
2251 1 -26.1507 11.2006 2.15555 1 3.06417e-09 
2754 1 -24.1183 12.4451 1.43703 1 2.80227e-10 
2755 1 -22.0859 11.2006 0.718517 1 4.94963e-11 
2758 1 -20.0535 12.4451 1.55557e-09 1 8.79489e-10 
2796 1 -20.0535 11.2006 2.15555 1 8.79468e-10 
3300 1 -18.0211 12.4451 1.43703 1 8.68128e-11 
3301 1 -15.9887 11.2006 0.718517 1 7.75345e-10 
3304 1 -13.9564 12.4451 1.96439e-09 1 3.17167e-10 
3342 1 -13.9564 11.2006 2.15555 1 3.17169e-10 
3846 1 -11.924 12.4451 1.43703 1 2.07403e-12 
3847 1 -9.89159 11.2006 0.718517 1 1.2869e-12 
3850 1 -7.8592 12.4451 2.54472e-09 1 3.07599e-10 
3888 1 -7.8592 11.2006 2.15555 1 3.0762e-10 
4381 1 -5.82682 12.4451 1.43703 1 1.13438e-08 
4382 1 -3.7945 11.2006 0.718517 1 7.6493e-08 
4385 1 -1.76234 12.4451 2.91781e-09 1 2.99591e-05 
4423 1 -1.76234 11.2006 2.15555 1 2.99591e-05 
4882 3 0.272975 12.4451 1.43703 2 6.1952 
6790 2 2.30831 11.2006 2.15555 1 3.05277e-05 
6793 2 2.30831 12.4451 2.92649e-09 1 3.05277e-05 
6834 2 4.34046 11.2006 0.718517 1 6.30882e-08 
7230 2 6.37275 12.4451 1.43703 1 3.05592e-09 
7227 2 8.40507 11.2006 2.15555 1 3.85278e-10 
7231 2 8.40507 12.4451 2.78852e-09 1 3.85244e-10 
7272 2 10.4374 11.2006 0.718517 1 1.52023e-11 
7728 2 12.4697 12.4451 1.43703 1 9.14352e-10 
7725 2 14.5021 11.2006 2.15555 1 2.78365e-12 
7729 2 14.5021 12.4451 2.35677e-09 1 2.785e-12 
7770 2 16.5344 11.2006 0.718517 1 5.78741e-12 
8262 2 18.5668 12.4451 1.43703 1 1.9904e-12 
8259 2 20.5991 11.2006 2.15555 1 1.27658e-11 
8263 2 20.5991 12.4451 2.12253e-09 1 1.27696e-11 
8304 2 22.6315 11.2006 0.718517 1 3.7844e-10 
58 4 -64.7648 13.6896 0.718517 5 18.5856 
160 4 -64.7648 16.1786 0.718517 5 18.5856 
168 4 -62.7325 13.6896 2.15555 1 1.00006e-15 
169 4 -62.7325 16.1786 2.15555 1 1.00006e-15 
172 4 -60.7003 14.9341 1.43703 1 6e-16 
186 4 -58.668 13.6896 0.718517 1 4e-16 
367 4 -58.668 16.1786 0.718517 1 4e-16 
387 4 -56.6357 13.6896 2.15555 1 2.09704e-09 
388 4 -56.6357 16.1786 2.15555 1 2.09704e-09 
391 1 -54.6034 14.9341 1.43703 1 2.52949e-10 
417 1 -52.5711 13.6896 0.718517 1 4.95754e-12 
682 1 -52.5711 16.1786 0.718517 1 4.95754e-12 
714 1 -50.5388 13.6896 2.15555 1 6.1794e-12 
715 1 -50.5388 16.1786 2.15555 1 6.1794e-12 
718 1 -48.5065 14.9341 1.43703 1 3.99711e-10 
756 1 -46.4742 13.6896 0.718517 1 3.2004e-10 
1102 1 -46.4742 16.1786 0.718517 1 3.2004e-10 
1142 1 -44.4418 13.6896 2.15555 1 1.21068e-09 
1143 1 -44.4418 16.1786 2.15555 1 1.21068e-09 
1146 1 -42.4095 14.9341 1.43703 1 2.01027e-10 
1187 1 -40.3771 13.6896 0.718517 1 5.41799e-10 
1595 1 -40.3771 16.1786 0.718517 1 5.41799e-10 
1635 1 -38.3448 13.6896 2.15555 1 3.02983e-09 
1636 1 -38.3448 16.1786 2.15555 1 3.02983e-09 
1638 1 -38.3448 14.9341 5.48568e-10 1 3.02991e-09 
1639 1 -36.3124 14.9341 1.43703 1 5.65951e-10 
1680 1 -34.2801 13.6896 0.718517 1 3.73757e-13 
2126 1 -34.2801 16.1786 0.718517 1 3.73757e-13 
2166 1 -32.2477 13.6896 2.15555 1 3.28615e-09 
2167 1 -32.2477 16.1786 2.15555 1 3.28615e-09 
2169 1 -32.2477 14.9341 6.78531e-10 1 3.28611e-09 
2170 1 -30.2154 14.9341 1.43703 1 3.33844e-10 
2211 1 -28.183 13.6896 0.718517 1 3.94289e-09 
2671 1 -28.183 16.1786 0.718517 1 3.94289e-09 
2711 1 -26.1507 13.6896 2.15555 1 3.06417e-09 
2712 1 -26.1507 16.1786 2.15555 1 3.06417e-09 
2714 1 -26.1507 14.9341 1.10878e-09 1 3.0642e-09 
2715 1 -24.1183 14.9341 1.43703 1 2.80227e-10 
2756 1 -22.0859 13.6896 0.718517 1 4.94963e-11 
3217 1 -22.0859 16.1786 0.718517 1 4.94963e-11 
3257 1 -20.0535 13.6896 2.15555 1 8.79468e-10 
3258 1 -20.0535 16.1786 2.15555 1 8.79468e-10 
3260 1 -20.0535 14.9341 1.55556e-09 1 8.79489e-10 
3261 1 -18.0211 14.9341 1.43703 1 8.68128e-11 
3302 1 -15.9887 13.6896 0.718517 1 7.75345e-10 
3763 1 -15.9887 16.1786 0.718517 1 7.75345e-10 
3803 1 -13.9564 13.6896 2.15555 1 3.17169e-10 
3804 1 -13.9564 16.1786 2.15555 1 3.17169e-10 
3806 1 -13.9564 14.9341 1.96439e-09 1 3.17167e-10 
3807 1 -11.924 14.9341 1.43703 1 2.07403e-12 
3848 1 -9.89159 13.6896 0.718517 1 1.2869e-12 
4298 1 -9.89159 16.1786 0.718517 1 1.2869e-12 
4338 1 -7.8592 13.6896 2.15555 1 3.0762e-10 
4339 1 -7.8592 16.1786 2.15555 1 3.0762e-10 
4341 1 -7.8592 14.9341 2.54472e-09 1 3.07599e-10 
4342 1 -5.82682 14.9341 1.43703 1 1.13438e-08 
4383 1 -3.7945 13.6896 0.718517 1 7.6493e-08 
4799 1 -3.7945 16.1786 0.718517 1 7.6493e-08 
4839 1 -1.76234 13.6896 2.15555 1 2.99591e-05 
4840 1 -1.76234 16.1786 2.15555 1 2.99591e-05 
4842 1 -1.76234 14.9341 2.9178e-09 1 2.99591e-05 
4843 3 0.272975 14.9341 1.43703 2 6.1952 
6791 2 2.30831 13.6896 2.15555 1 3.05277e-05 
7144 2 2.30831 16.1786 2.15555 1 3.05277e-05 
7190 2 2.30831 14.9341 2.92649e-09 1 3.05277e-05 
7187 2 4.34046 13.6896 0.718517 1 6.30882e-08 
7188 2 4.34046 16.1786 0.718517 1 6.30882e-08 
7189 2 6.37275 14.9341 1.43703 1 3.05592e-09 
7228 2 8.40507 13.6896 2.15555 1 3.85278e-10 
7641 2 8.40507 16.1786 2.15555 1 3.85278e-10 
7688 2 8.40507 14.9341 2.78852e-09 1 3.85244e-10 
7685 2 10.4374 13.6896 0.718517 1 1.52023e-11 
7686 2 10.4374 16.1786 0.718517 1 1.52023e-11 
7687 2 12.4697 14.9341 1.43703 1 9.14352e-10 
7726 2 14.5021 13.6896 2.15555 1 2.78365e-12 
8175 2 14.5021 16.1786 2.15555 1 2.78365e-12 
8219 2 16.5344 13.6896 0.718517 1 5.78741e-12 
8220 2 16.5344 16.1786 0.718517 1 5.78741e-12 
8222 2 14.5021 14.9341 2.35677e-09 1 2.785e-12 
8221 2 18.5668 14.9341 1.43703 1 1.9904e-12 
8260 2 20.5991 13.6896 2.15555 1 1.27658e-11 
8721 2 20.5991 16.1786 2.15555 1 1.27658e-11 
8768 2 20.5991 14.9341 2.12254e-09 1 1.27696e-11 
8765 2 22.6315 13.6896 0.718517 1 3.7844e-10 
8766 2 22.6315 16.1786 0.718517 1 3.7844e-10 
161 4 -64.7648 18.6676 0.718517 5 18.5856 
350 4 -62.7325 18.6676 2.15555 1 1.00006e-15 
366 4 -60.7003 17.4231 1.43703 1 6e-16 
368 4 -58.668 18.6676 0.718517 1 4e-16 
653 4 -56.6357 18.6676 2.15555 1 2.09704e-09 
681 1 -54.6034 17.4231 1.43703 1 2.52949e-10 
683 1 -52.5711 18.6676 0.718517 1 4.95754e-12 
1061 1 -50.5388 18.6676 2.15555 1 6.1794e-12 
1101 1 -48.5065 17.4231 1.43703 1 3.99711e-10 
1103 1 -46.4742 18.6676 0.718517 1 3.2004e-10 
1551 1 -44.4418 18.6676 2.15555 1 1.21068e-09 
1594 1 -42.4095 17.4231 1.43703 1 2.01027e-10 
1596 1 -40.3771 18.6676 0.718517 1 5.41799e-10 
1598 1 -38.3448 17.4231 5.48575e-10 1 3.02991e-09 
2082 1 -38.3448 18.6676 2.15555 1 3.02983e-09 
2125 1 -36.3124 17.4231 1.43703 1 5.65951e-10 
2127 1 -34.2801 18.6676 0.718517 1 3.73757e-13 
2129 1 -32.2477 17.4231 6.78532e-10 1 3.28611e-09 
2627 1 -32.2477 18.6676 2.15555 1 3.28615e-09 
2670 1 -30.2154 17.4231 1.43703 1 3.33844e-10 
2672 1 -28.183 18.6676 0.718517 1 3.94289e-09 
2674 1 -26.1507 17.4231 1.10878e-09 1 3.0642e-09 
3173 1 -26.1507 18.6676 2.15555 1 3.06417e-09 
3216 1 -24.1183 17.4231 1.43703 1 2.80227e-10 
3218 1 -22.0859 18.6676 0.718517 1 4.94963e-11 
3220 1 -20.0535 17.4231 1.55556e-09 1 8.79489e-10 
3719 1 -20.0535 18.6676 2.15555 1 8.79468e-10 
3762 1 -18.0211 17.4231 1.43703 1 8.68128e-11 
3764 1 -15.9887 18.6676 0.718517 1 7.75345e-10 
3766 1 -13.9564 17.4231 1.96439e-09 1 3.17167e-10 
4254 1 -13.9564 18.6676 2.15555 1 3.17169e-10 
4297 1 -11.924 17.4231 1.43703 1 2.07403e-12 
4299 1 -9.89159 18.6676 0.718517 1 1.2869e-12 
4301 1 -7.8592 17.4231 2.54472e-09 1 3.07599e-10 
4755 1 -7.8592 18.6676 2.15555 1 3.0762e-10 
4798 1 -5.82682 17.4231 1.43703 1 1.13438e-08 
4800 1 -3.7945 18.6676 0.718517 1 7.6493e-08 
4802 1 -1.76234 17.4231 2.9178e-09 1 2.99591e-05 
5198 1 -1.76234 18.6676 2.15555 1 2.99591e-05 
5241 3 0.272975 17.4231 1.43703 2 6.1952 
7145 2 2.30831 18.6676 2.15555 1 3.05277e-05 
7147 2 2.30831 17.4231 2.92649e-09 1 3.05277e-05 
7601 2 4.34046 18.6676 0.718517 1 6.30882e-08 
7644 2 6.37275 17.4231 1.43703 1 3.05592e-09 
7642 2 8.40507 18.6676 2.15555 1 3.85278e-10 
7645 2 8.40507 17.4231 2.78853e-09 1 3.85244e-10 
8135 2 10.4374 18.6676 0.718517 1 1.52023e-11 
8178 2 12.4697 17.4231 1.43703 1 9.14352e-10 
8176 2 14.5021 18.6676 2.15555 1 2.78365e-12 
8179 2 14.5021 17.4231 2.35677e-09 1 2.785e-12 
8681 2 16.5344 18.6676 0.718517 1 5.78741e-12 
8724 2 18.5668 17.4231 1.43703 1 1.9904e-12 
8722 2 20.5991 18.6676 2.15555 1 1.27658e-11 
8725 2 20.5991 17.4231 2.12253e-09 1 1.27696e-11 
9227 2 22.6315 18.6676 0.718517 1 3.7844e-10 
342 4 -64.7648 21.1566 0.718517 5 18.5856 
351 4 -62.7325 21.1566 2.15555 1 1.00006e-15 
354 4 -60.7003 19.9121 1.43703 1 6e-16 
633 4 -58.668 21.1566 0.718517 1 4e-16 
654 4 -56.6357 21.1566 2.15555 1 2.09704e-09 
657 1 -54.6034 19.9121 1.43703 1 2.52949e-10 
1029 1 -52.5711 21.1566 0.718517 1 4.95754e-12 
1062 1 -50.5388 21.1566 2.15555 1 6.1794e-12 
1065 1 -48.5065 19.9121 1.43703 1 3.99711e-10 
1511 1 -46.4742 21.1566 0.718517 1 3.2004e-10 
1552 1 -44.4418 21.1566 2.15555 1 1.21068e-09 
1555 1 -42.4095 19.9121 1.43703 1 2.01027e-10 
2042 1 -40.3771 21.1566 0.718517 1 5.41799e-10 
2083 1 -38.3448 21.1566 2.15555 1 3.02983e-09 
2085 1 -38.3448 19.9121 5.48571e-10 1 3.02991e-09 
2086 1 -36.3124 19.9121 1.43703 1 5.65951e-10 
2587 1 -34.2801 21.1566 0.718517 1 3.73757e-13 
2628 1 -32.2477 21.1566 2.15555 1 3.28615e-09 
2630 1 -32.2477 19.9121 6.78529e-10 1 3.28611e-09 
2631 1 -30.2154 19.9121 1.43703 1 3.33844e-10 
3133 1 -28.183 21.1566 0.718517 1 3.94289e-09 
3174 1 -26.1507 21.1566 2.15555 1 3.06417e-09 
3176 1 -26.1507 19.9121 1.10878e-09 1 3.0642e-09 
3177 1 -24.1183 19.9121 1.43703 1 2.80227e-10 
3679 1 -22.0859 21.1566 0.718517 1 4.94963e-11 
3720 1 -20.0535 21.1566 2.15555 1 8.79468e-10 
3722 1 -20.0535 19.9121 1.55557e-09 1 8.79489e-10 
3723 1 -18.0211 19.9121 1.43703 1 8.68128e-11 
4214 1 -15.9887 21.1566 0.718517 1 7.75345e-10 
4255 1 -13.9564 21.1566 2.15555 1 3.17169e-10 
4257 1 -13.9564 19.9121 1.96439e-09 1 3.17167e-10 
4258 1 -11.924 19.9121 1.43703 1 2.07403e-12 
4715 1 -9.89159 21.1566 0.718517 1 1.2869e-12 
4756 1 -7.8592 21.1566 2.15555 1 3.0762e-10 
4758 1 -7.8592 19.9121 2.54472e-09 1 3.07599e-10 
4759 1 -5.82682 19.9121 1.43703 1 1.13438e-08 
5158 1 -3.7945 21.1566 0.718517 1 7.6493e-08 
5199 1 -1.76234 21.1566 2.15555 1 2.99591e-05 
5201 1 -1.76234 19.9121 2.91781e-09 1 2.99591e-05 
5202 3 0.272975 19.9121 1.43703 2 6.1952 
7558 2 2.30831 21.1566 2.15555 1 3.05277e-05 
7604 2 2.30831 19.9121 2.92649e-09 1 3.05277e-05 
7602 2 4.34046 21.1566 0.718517 1 6.30882e-08 
7603 2 6.37275 19.9121 1.43703 1 3.05592e-09 
8091 2 8.40507 21.1566 2.15555 1 3.85278e-10 
8138 2 8.40507 19.9121 2.78852e-09 1 3.85244e-10 
8136 2 10.4374 21.1566 0.718517 1 1.52023e-11 
8137 2 12.4697 19.9121 1.43703 1 9.14352e-10 
8637 2 14.5021 21.1566 2.15555 1 2.78365e-12 
8682 2 16.5344 21.1566 0.718517 1 5.78741e-12 
8684 2 14.5021 19.9121 2.35677e-09 1 2.785e-12 
8683 2 18.5668 19.9121 1.43703 1 1.9904e-12 
9183 2 20.5991 21.1566 2.15555 1 1.27658e-11 
9230 2 20.5991 19.9121 2.12254e-09 1 1.27696e-11 
9228 2 22.6315 21.1566 0.718517 1 3.7844e-10 
343 4 -64.7648 23.6457 0.718517 5 18.5856 
616 4 -62.7325 23.6457 2.15555 1 1.00006e-15 
632 4 -60.7003 22.4011 1.43703 1 6e-16 
634 4 -58.668 23.6457 0.718517 1 4e-16 
1000 4 -56.6357 23.6457 2.15555 1 2.09704e-09 
1028 1 -54.6034 22.4011 1.43703 1 2.52949e-10 
1030 1 -52.5711 23.6457 0.718517 1 4.95754e-12 
1470 1 -50.5388 23.6457 2.15555 1 6.1794e-12 
1510 1 -48.5065 22.4011 1.43703 1 3.99711e-10 
1512 1 -46.4742 23.6457 0.718517 1 3.2004e-10 
1998 1 -44.4418 23.6457 2.15555 1 1.21068e-09 
2041 1 -42.4095 22.4011 1.43703 1 2.01027e-10 
2043 1 -40.3771 23.6457 0.718517 1 5.41799e-10 
2045 1 -38.3448 22.4011 5.48573e-10 1 3.02991e-09 
2543 1 -38.3448 23.6457 2.15555 1 3.02983e-09 
2586 1 -36.3124 22.4011 1.43703 1 5.65951e-10 
2588 1 -34.2801 23.6457 0.718517 1 3.73757e-13 
2590 1 -32.2477 22.4011 6.78531e-10 1 3.28611e-09 
3089 1 -32.2477 23.6457 2.15555 1 3.28615e-09 
3132 1 -30.2154 22.4011 1.43703 1 3.33844e-10 
3134 1 -28.183 23.6457 0.718517 1 3.94289e-09 
3136 1 -26.1507 22.4011 1.10878e-09 1 3.0642e-09 
3635 1 -26.1507 23.6457 2.15555 1 3.06417e-09 
3678 1 -24.1183 22.4011 1.43703 1 2.80227e-10 
3680 1 -22.0859 23.6457 0.718517 1 4.94963e-11 
3682 1 -20.0535 22.4011 1.55556e-09 1 8.79489e-10 
4170 1 -20.0535 23.6457 2.15555 1 8.79468e-10 
4213 1 -18.0211 22.4011 1.43703 1 8.68128e-11 
4215 1 -15.9887 23.6457 0.718517 1 7.75345e-10 
4217 1 -13.9564 22.4011 1.96439e-09 1 3.17167e-10 
4671 1 -13.9564 23.6457 2.15555 1 3.17169e-10 
4714 1 -11.924 22.4011 1.43703 1 2.07403e-12 
4716 1 -9.89159 23.6457 0.718517 1 1.2869e-12 
4718 1 -7.8592 22.4011 2.54472e-09 1 3.07599e-10 
5114 1 -7.8592 23.6457 2.15555 1 3.0762e-10 
5157 1 -5.82682 22.4011 1.43703 1 1.13438e-08 
5159 1 -3.7945 23.6457 0.718517 1 7.6493e-08 
5161 1 -1.76234 22.4011 2.91781e-09 1 2.99591e-05 
5478 1 -1.76234 23.6457 2.15555 1 2.99591e-05 
5521 3 0.272975 22.4011 1.43703 2 6.1952 
7559 2 2.30831 23.6457 2.15555 1 3.05277e-05 
7561 2 2.30831 22.4011 2.92649e-09 1 3.05277e-05 
8051 2 4.34046 23.6457 0.718517 1 6.30882e-08 
8094 2 6.37275 22.4011 1.43703 1 3.05592e-09 
8092 2 8.40507 23.6457 2.15555 1 3.85278e-10 
8095 2 8.40507 22.4011 2.78853e-09 1 3.85244e-10 
8597 2 10.4374 23.6457 0.718517 1 1.52023e-11 
8640 2 12.4697 22.4011 1.43703 1 9.14352e-10 
8638 2 14.5021 23.6457 2.15555 1 2.78365e-12 
8641 2 14.5021 22.4011 2.35677e-09 1 2.785e-12 
9143 2 16.5344 23.6457 0.718517 1 5.78741e-12 
9186 2 18.5668 22.4011 1.43703 1 1.9904e-12 
9184 2 20.5991 23.6457 2.15555 1 1.27658e-11 
9187 2 20.5991 22.4011 2.12254e-09 1 1.27696e-11 
9689 2 22.6315 23.6457 0.718517 1 3.7844e-10 
608 4 -64.7648 26.1347 0.718517 5 18.5856 
617 4 -62.7325 26.1347 2.15555 1 1.00006e-15 
620 4 -60.7003 24.8902 1.43703 1 6e-16 
980 4 -58.668 26.1347 0.718517 1 4e-16 
1001 4 -56.6357 26.1347 2.15555 1 2.09704e-09 
1004 1 -54.6034 24.8902 1.43703 1 2.52949e-10 
1438 1 -52.5711 26.1347 0.718517 1 4.95754e-12 
1471 1 -50.5388 26.1347 2.15555 1 6.1794e-12 
1474 1 -48.5065 24.8902 1.43703 1 3.99711e-10 
1958 1 -46.4742 26.1347 0.718517 1 3.2004e-10 
1999 1 -44.4418 26.1347 2.15555 1 1.21068e-09 
2002 1 -42.4095 24.8902 1.43703 1 2.01027e-10 
2503 1 -40.3771 26.1347 0.718517 1 5.41799e-10 
2544 1 -38.3448 26.1347 2.15555 1 3.02983e-09 
2546 1 -38.3448 24.8902 5.48573e-10 1 3.02991e-09 
2547 1 -36.3124 24.8902 1.43703 1 5.65951e-10 
3049 1 -34.2801 26.1347 0.718517 1 3.73757e-13 
3090 1 -32.2477 26.1347 2.15555 1 3.28615e-09 
3092 1 -32.2477 24.8902 6.78529e-10 1 3.28611e-09 
3093 1 -30.2154 24.8902 1.43703 1 3.33844e-10 
3595 1 -28.183 26.1347 0.718517 1 3.94289e-09 
3636 1 -26.1507 26.1347 2.15555 1 3.06417e-09 
3638 1 -26.1507 24.8902 1.10878e-09 1 3.0642e-09 
3639 1 -24.1183 24.8902 1.43703 1 2.80227e-10 
4130 1 -22.0859 26.1347 0.718517 1 4.94963e-11 
4171 1 -20.0535 26.1347 2.15555 1 8.79468e-10 
4173 1 -20.0535 24.8902 1.55556e-09 1 8.79489e-10 
4174 1 -18.0211 24.8902 1.43703 1 8.68128e-11 
4631 1 -15.9887 26.1347 0.718517 1 7.75345e-10 
4672 1 -13.9564 26.1347 2.15555 1 3.17169e-10 
4674 1 -13.9564 24.8902 1.96439e-09 1 3.17167e-10 
4675 1 -11.924 24.8902 1.43703 1 2.07403e-12 
5074 1 -9.89159 26.1347 0.718517 1 1.2869e-12 
5115 1 -7.8592 26.1347 2.15555 1 3.0762e-10 
5117 1 -7.8592 24.8902 2.54472e-09 1 3.07599e-10 
5118 1 -5.82682 24.8902 1.43703 1 1.13438e-08 
5438 1 -3.7945 26.1347 0.718517 1 7.6493e-08 
5479 1 -1.76234 26.1347 2.15555 1 2.99591e-05 
5481 1 -1.76234 24.8902 2.9178e-09 1 2.99591e-05 
5482 3 0.272975 24.8902 1.43703 2 6.1952 
8008 2 2.30831 26.1347 2.15555 1 3.05277e-05 
8054 2 2.30831 24.8902 2.92649e-09 1 3.05277e-05 
8052 2 4.34046 26.1347 0.718517 1 6.30882e-08 
8053 2 6.37275 24.8902 1.43703 1 3.05592e-09 
8553 2 8.40507 26.1347 2.15555 1 3.85278e-10 
8600 2 8.40507 24.8902 2.78853e-09 1 3.85244e-10 
8598 2 10.4374 26.1347 0.718517 1 1.52023e-11 
8599 2 12.4697 24.8902 1.43703 1 9.14352e-10 
9099 2 14.5021 26.1347 2.15555 1 2.78365e-12 
9144 2 16.5344 26.1347 0.718517 1 5.78741e-12 
9146 2 14.5021 24.8902 2.35677e-09 1 2.785e-12 
9145 2 18.5668 24.8902 1.43703 1 1.9904e-12 
9645 2 20.5991 26.1347 2.15555 1 1.27658e-11 
9692 2 20.5991 24.8902 2.12254e-09 1 1.27696e-11 
9690 2 22.6315 26.1347 0.718517 1 3.7844e-10 
609 4 -64.7648 28.6237 0.718517 5 18.5856 
963 4 -62.7325 28.6237 2.15555 1 1.00006e-15 
979 4 -60.7003 27.3792 1.43703 1 6e-16 
981 4 -58.668 28.6237 0.718517 1 4e-16 
1409 4 -56.6357 28.6237 2.15555 1 2.09704e-09 
1437 1 -54.6034 27.3792 1.43703 1 2.52949e-10 
1439 1 -52.5711 28.6237 0.718517 1 4.95754e-12 
1917 1 -50.5388 28.6237 2.15555 1 6.1794e-12 
1957 1 -48.5065 27.3792 1.43703 1 3.99711e-10 
1959 1 -46.4742 28.6237 0.718517 1 3.2004e-10 
2459 1 -44.4418 28.6237 2.15555 1 1.21068e-09 
2502 1 -42.4095 27.3792 1.43703 1 2.01027e-10 
2504 1 -40.3771 28.6237 0.718517 1 5.41799e-10 
2506 1 -38.3448 27.3792 5.48569e-10 1 3.02991e-09 
3005 1 -38.3448 28.6237 2.15555 1 3.02983e-09 
3048 1 -36.3124 27.3792 1.43703 1 5.65951e-10 
3050 1 -34.2801 28.6237 0.718517 1 3.73757e-13 
3052 1 -32.2477 27.3792 6.78531e-10 1 3.28611e-09 
3551 1 -32.2477 28.6237 2.15555 1 3.28615e-09 
3594 1 -30.2154 27.3792 1.43703 1 3.33844e-10 
3596 1 -28.183 28.6237 0.718517 1 3.94289e-09 
3598 1 -26.1507 27.3792 1.10878e-09 1 3.0642e-09 
4086 1 -26.1507 28.6237 2.15555 1 3.06417e-09 
4129 1 -24.1183 27.3792 1.43703 1 2.80227e-10 
4131 1 -22.0859 28.6237 0.718517 1 4.94963e-11 
4133 1 -20.0535 27.3792 1.55556e-09 1 8.79489e-10 
4587 1 -20.0535 28.6237 2.15555 1 8.79468e-10 
4630 1 -18.0211 27.3792 1.43703 1 8.68128e-11 
4632 1 -15.9887 28.6237 0.718517 1 7.75345e-10 
4634 1 -13.9564 27.3792 1.96439e-09 1 3.17167e-10 
5030 1 -13.9564 28.6237 2.15555 1 3.17169e-10 
5073 1 -11.924 27.3792 1.43703 1 2.07403e-12 
5075 1 -9.89159 28.6237 0.718517 1 1.2869e-12 
5077 1 -7.8592 27.3792 2.54472e-09 1 3.07599e-10 
5394 1 -7.8592 28.6237 2.15555 1 3.0762e-10 
5437 1 -5.82682 27.3792 1.43703 1 1.13438e-08 
5439 1 -3.7945 28.6237 0.718517 1 7.6493e-08 
5441 1 -1.76234 27.3792 2.9178e-09 1 2.99591e-05 
5674 1 -1.76234 28.6237 2.15555 1 2.99591e-05 
5717 3 0.272975 27.3792 1.43703 2 6.1952 
8009 2 2.30831 28.6237 2.15555 1 3.05277e-05 
8011 2 2.30831 27.3792 2.9265e-09 1 3.05277e-05 
8513 2 4.34046 28.6237 0.718517 1 6.30882e-08 
8556 2 6.37275 27.3792 1.43703 1 3.05592e-09 
8554 2 8.40507 28.6237 2.15555 1 3.85278e-10 
8557 2 8.40507 27.3792 2.78852e-09 1 3.85244e-10 
9059 2 10.4374 28.6237 0.718517 1 1.52023e-11 
9102 2 12.4697 27.3792 1.43703 1 9.14352e-10 
9100 2 14.5021 28.6237 2.15555 1 2.78365e-12 
9103 2 14.5021 27.3792 2.35677e-09 1 2.785e-12 
9605 2 16.5344 28.6237 0.718517 1 5.78741e-12 
9648 2 18.5668 27.3792 1.43703 1 1.9904e-12 
9646 2 20.5991 28.6237 2.15555 1 1.27658e-11 
9649 2 20.5991 27.3792 2.12253e-09 1 1.27696e-11 
10151 2 22.6315 28.6237 0.718517 1 3.7844e-10 
958 4 -64.7648 31.1127 0.718517 5 18.5856 