ITEM: TIMESTEP
0
ITEM: NUMBER OF ATOMS
20
ITEM: BOX BOUNDS ss pp pp
-62.4863 117.625
0 30.1777
0 38.5597
ITEM: ATOMS id type x y z c_cna c_csd 
78 4 -61.6991 0.629647 1.08782 5 12.3904 
298 4 -60.1249 2.06668 2.37314 1 8.99924e-16 
299 4 -58.5507 2.06668 0.445157 1 6.98327e-16 
627 4 -56.1894 1.34816 0.766488 1 6.0001e-16 
672 4 -53.8282 0.629647 1.08782 1 2.44819e-09 
1061 1 -52.2539 2.0667 2.37313 1 2.48968e-09 
1062 1 -50.6797 2.06673 0.44512 1 5.58006e-09 
1458 1 -48.3184 1.34822 0.766436 1 3.631e-09 
1503 1 -45.9571 0.629726 1.08773 1 4.79372e-09 
1901 1 -44.3829 2.06675 2.37303 1 1.55397e-09 
1902 1 -42.8087 2.06678 0.445018 1 3.08512e-09 
2298 1 -40.4473 1.34828 0.76629 1 1.1952e-09 
2343 1 -38.086 0.629793 1.08757 1 1.6426e-09 
2741 1 -36.5117 2.06685 2.37286 1 1.4847e-09 
2742 1 -34.9375 2.06688 0.444848 1 1.81939e-09 
3138 1 -32.5761 1.34841 0.76615 1 6.77707e-10 
3183 1 -30.2148 0.629941 1.08746 1 2.00942e-09 
3581 1 -28.6405 2.06699 2.37277 1 1.21689e-09 
3582 1 -27.0663 2.06701 0.44477 1 2.38866e-09 
3978 1 -24.705 1.34849 0.766101 1 1.16779e-09 