ITEM: TIMESTEP
0
ITEM: NUMBER OF ATOMS
49450
ITEM: BOX BOUNDS xy xz yz pp pp ss
0 47.9217 2.62186
0 64.8966 2.76751
-190.172 211.429 33.3253
ITEM: ATOMS id type x y z c_csym c_cna 
501 1 26.1696 30.9423 -166.454 8.03113e-09 1 
516 1 24.1306 31.1114 -174.054 3.52565e-09 1 
517 1 23.9849 31.1236 -171.57 5.24588e-09 1 
518 1 26.4611 30.918 -171.424 4.51269e-09 1 
519 1 26.3153 30.9302 -168.939 8.03507e-09 1 
520 1 28.7915 30.7245 -168.793 3.0334e-09 1 
521 1 28.6458 30.7367 -166.308 1.00706e-08 1 
522 1 31.122 30.5311 -166.162 1.85331e-08 1 
532 1 24.4221 31.0869 -179.024 9.58556e-09 1 
533 1 24.2763 31.0992 -176.539 3.67963e-09 1 
534 1 26.7525 30.8936 -176.393 4.22863e-09 1 
535 1 26.6068 30.9058 -173.908 4.25101e-09 1 
536 1 29.083 30.7001 -173.762 6.37006e-09 1 
537 1 28.9373 30.7123 -171.277 3.47556e-09 1 
538 1 31.4135 30.5067 -171.131 8.69247e-09 1 
539 1 31.2677 30.5189 -168.647 3.26059e-09 1 
540 1 33.7439 30.3132 -168.5 1.08436e-08 1 
541 1 33.5982 30.3254 -166.016 8.80254e-09 1 
542 1 36.0744 30.1198 -165.869 4.37548e-09 1 
548 4 24.7134 31.0626 -183.993 1.22112e-08 1 
549 1 24.5678 31.0748 -181.509 8.12187e-09 1 
550 1 27.044 30.8692 -181.362 4.0605e-09 1 
551 1 26.8983 30.8813 -178.878 9.43192e-09 1 
552 1 29.3745 30.6757 -178.731 2.80041e-09 1 
553 1 29.2287 30.688 -176.247 8.10243e-09 1 
554 1 31.7049 30.4823 -176.101 4.42407e-09 1 
555 1 31.5592 30.4945 -173.616 5.46818e-09 1 
556 1 34.0354 30.2889 -173.47 6.56254e-09 1 
557 1 33.8897 30.3011 -170.985 8.66885e-09 1 
558 1 36.3658 30.0955 -170.839 3.22403e-09 1 
559 1 36.2201 30.1076 -168.354 2.4114e-09 1 
560 1 38.6963 29.902 -168.208 3.66595e-09 1 
561 1 38.5506 29.9142 -165.723 3.40287e-09 1 
562 1 41.0268 29.7085 -165.577 5.66215e-09 1 
564 4 25.0048 31.0384 -188.963 18.5856 5 
565 4 24.8591 31.0505 -186.478 1.22505e-13 1 
566 4 27.3353 30.8449 -186.332 1.45324e-13 1 
567 4 27.1896 30.857 -183.847 8.80679e-09 1 
568 4 29.6658 30.6514 -183.701 1.01885e-08 1 
569 1 29.5202 30.6635 -181.216 6.74037e-09 1 
570 1 31.9964 30.4579 -181.07 5.44454e-09 1 
571 1 31.8506 30.4701 -178.585 4.91773e-09 1 
572 1 34.3268 30.2645 -178.439 2.56263e-09 1 
573 1 34.1811 30.2767 -175.954 5.88324e-09 1 
574 1 36.6573 30.0711 -175.808 9.99356e-09 1 
575 1 36.5116 30.0833 -173.324 3.72593e-09 1 
576 1 38.9878 29.8776 -173.177 3.8983e-09 1 
577 1 38.842 29.8898 -170.693 9.13598e-09 1 
578 1 41.3182 29.6842 -170.547 6.3917e-09 1 
579 1 41.1725 29.6963 -168.062 9.83891e-09 1 
580 4 27.481 30.8328 -188.817 6.1952 5 
581 4 29.9572 30.6272 -188.67 6.1952 5 
582 4 29.8115 30.6393 -186.186 7.0124e-14 1 
583 4 32.2877 30.4336 -186.039 5.9324e-14 1 
584 4 32.142 30.4457 -183.555 1.56946e-08 1 
585 4 34.6182 30.2401 -183.409 2.54311e-08 1 
586 1 34.4726 30.2523 -180.924 1.48132e-08 1 
587 1 36.9487 30.0466 -180.778 5.02575e-09 1 
588 1 36.803 30.0589 -178.293 2.05326e-09 1 
589 1 39.2792 29.8532 -178.147 2.26654e-09 1 
590 1 39.1335 29.8654 -175.662 1.10139e-08 1 
591 1 41.6097 29.6598 -175.516 1.29685e-08 1 
592 1 41.464 29.672 -173.031 9.99377e-09 1 
593 4 32.4334 30.4215 -188.524 6.1952 5 
594 4 34.9096 30.2159 -188.378 6.1952 5 
595 4 34.7639 30.228 -185.893 8.3124e-14 1 
596 4 37.2401 30.0224 -185.747 1.41324e-13 1 
597 4 37.0944 30.0344 -183.262 2.31364e-08 1 
598 4 39.5706 29.8288 -183.116 2.541e-08 1 
599 1 39.4249 29.841 -180.632 7.51409e-09 1 
600 1 41.9011 29.6354 -180.485 8.56245e-09 1 
601 1 41.7554 29.6475 -178.001 1.23453e-08 1 
602 4 37.3858 30.0103 -188.232 6.1952 5 
603 4 39.8619 29.8046 -188.086 6.1952 5 
604 4 39.7163 29.8167 -185.601 1.08124e-13 1 
605 4 42.1925 29.6111 -185.455 6.28926e-09 1 
606 1 42.0468 29.6232 -182.97 9.88452e-08 1 
607 4 42.3381 29.599 -187.94 6.1952 5 
2646 1 43.6487 29.4907 -167.916 3.84839e-09 1 
2647 1 43.503 29.5029 -165.431 8.64772e-09 1 
2648 1 3.4469 29.2973 -165.285 3.67049e-09 1 
2716 1 43.9402 29.4663 -172.885 5.44296e-09 1 
2717 1 43.7944 29.4785 -170.4 1.97656e-09 1 
2718 1 2.71873 31.1236 -171.57 5.24586e-09 1 
2719 1 3.73828 29.2729 -170.254 2.56407e-09 1 
2720 1 3.59257 29.2851 -167.77 6.10265e-09 1 
2721 1 5.04917 30.9302 -168.939 8.03502e-09 1 
2722 1 4.90347 30.9423 -166.454 8.03112e-09 1 
2723 1 6.06876 29.0795 -167.623 8.83092e-09 1 
2725 1 7.37967 30.7367 -166.308 1.00706e-08 1 
2787 1 44.2316 29.4419 -177.855 5.49681e-09 1 
2788 1 44.0859 29.4541 -175.37 5.00358e-09 1 
2789 1 3.01016 31.0992 -176.539 3.67948e-09 1 
2790 1 2.86444 31.1114 -174.054 3.52562e-09 1 
2791 1 4.02973 29.2485 -175.224 9.14502e-09 1 
2792 1 3.88404 29.2607 -172.739 1.01521e-08 1 
2793 1 5.34065 30.9058 -173.908 4.25098e-09 1 
2794 1 5.19492 30.918 -171.424 4.51267e-09 1 
2795 1 6.36022 29.0551 -172.593 4.41966e-09 1 
2796 1 6.21447 29.0673 -170.108 6.90028e-09 1 
2797 1 7.67111 30.7123 -171.277 3.47557e-09 1 
2798 1 7.52537 30.7245 -168.793 3.03341e-09 1 
2799 1 8.69068 28.8617 -169.962 6.52498e-09 1 
2800 1 8.54496 28.8738 -167.477 7.52974e-09 1 
2801 1 10.0016 30.5189 -168.647 3.2606e-09 1 
2802 1 9.85586 30.5311 -166.162 1.85331e-08 1 
2803 1 11.0212 28.6682 -167.331 2.34237e-09 1 
2805 1 12.3321 30.3254 -166.016 8.80253e-09 1 
2857 1 44.523 29.4176 -182.824 4.21592e-08 1 
2858 1 44.3773 29.4297 -180.339 5.09293e-09 1 
2859 1 3.3016 31.0748 -181.509 8.12086e-09 1 
2860 1 3.1559 31.0869 -179.024 9.58505e-09 1 
2861 1 4.32122 29.2241 -180.193 1.59774e-08 1 
2862 1 4.17548 29.2363 -177.708 1.2199e-08 1 
2863 1 5.6321 30.8813 -178.878 9.43214e-09 1 
2864 1 5.48636 30.8936 -176.393 4.22875e-09 1 
2865 1 6.65167 29.0307 -177.562 4.43404e-09 1 
2866 1 6.50594 29.0429 -175.078 3.90803e-09 1 
2867 1 7.96256 30.688 -176.247 8.10232e-09 1 
2868 1 7.81685 30.7001 -173.762 6.37003e-09 1 
2869 1 8.98212 28.8373 -174.931 6.72019e-09 1 
2870 1 8.83641 28.8495 -172.447 5.30621e-09 1 
2871 1 10.293 30.4945 -173.616 5.46818e-09 1 
2872 1 10.1473 30.5067 -171.131 8.69248e-09 1 
2873 1 11.3126 28.6439 -172.301 6.45704e-09 1 
2874 1 11.1669 28.656 -169.816 1.42184e-08 1 
2875 1 12.6235 30.3011 -170.985 8.66884e-09 1 
2876 1 12.4778 30.3132 -168.5 1.08437e-08 1 
2877 1 13.6431 28.4504 -169.67 4.82747e-09 1 
2878 1 13.4974 28.4626 -167.185 3.48221e-09 1 
2879 1 14.954 30.1076 -168.354 2.41141e-09 1 
2880 1 14.8083 30.1198 -165.869 4.37546e-09 1 
2881 1 15.9736 28.2569 -167.039 3.60084e-09 1 
2883 1 17.2845 29.9142 -165.723 3.40288e-09 1 
2927 4 44.8143 29.3933 -187.793 6.1952 5 
2928 4 44.6687 29.4054 -185.309 3.11386e-09 1 
2929 4 3.59295 31.0505 -186.478 7.6023e-14 1 
2930 4 3.44729 31.0626 -183.993 1.22163e-08 1 
2931 4 4.61256 29.1998 -185.163 1.33798e-09 1 
2932 1 4.4669 29.2119 -182.678 6.98756e-09 1 
2933 4 5.92349 30.857 -183.847 8.81394e-09 1 
2934 1 5.77781 30.8692 -181.362 4.06088e-09 1 
2935 1 6.94309 29.0063 -182.532 8.80965e-09 1 
2936 1 6.79741 29.0185 -180.047 1.26566e-08 1 
2937 1 8.25401 30.6635 -181.216 6.74649e-09 1 
2938 1 8.10829 30.6757 -178.731 2.80055e-09 1 
2939 1 9.27359 28.8129 -179.901 6.49893e-09 1 
2940 1 9.12784 28.8251 -177.416 5.63608e-09 1 
2941 1 10.5845 30.4701 -178.585 4.91856e-09 1 
2942 1 10.4387 30.4823 -176.101 4.42401e-09 1 
2943 1 11.604 28.6194 -177.27 9.90243e-09 1 
2944 1 11.4583 28.6317 -174.785 9.30527e-09 1 
2945 1 12.9149 30.2767 -175.954 5.88315e-09 1 
2946 1 12.7692 30.2889 -173.47 6.56253e-09 1 
2947 1 13.9345 28.426 -174.639 6.1057e-09 1 
2948 1 13.7888 28.4382 -172.154 3.41661e-09 1 
2949 1 15.2454 30.0833 -173.324 3.72592e-09 1 
2950 1 15.0997 30.0955 -170.839 3.22404e-09 1 
2951 1 16.265 28.2326 -172.008 2.23393e-09 1 
2952 1 16.1193 28.2448 -169.523 2.6905e-09 1 
2953 1 17.5759 29.8898 -170.693 9.13595e-09 1 
2954 1 17.4302 29.902 -168.208 3.66597e-09 1 
2955 1 18.5954 28.0391 -169.377 4.56262e-09 1 
2956 1 18.4498 28.0513 -166.893 2.57308e-09 1 
2957 1 19.9064 29.6963 -168.062 9.83894e-09 1 
2958 1 19.7607 29.7085 -165.577 5.66216e-09 1 
2959 1 20.926 27.8457 -166.746 3.97917e-09 1 
2961 1 22.2369 29.5029 -165.431 8.6477e-09 1 
2997 4 3.73861 31.0384 -188.963 18.5856 5 
2998 4 4.90388 29.1756 -190.132 30.976 5 
2999 4 4.75822 29.1877 -187.647 1.1e-13 1 
3000 4 6.2148 30.8328 -188.817 6.1952 5 
3001 4 6.06914 30.8449 -186.332 1.51324e-13 1 
3002 4 7.23441 28.9821 -187.501 1.1e-13 1 
3003 4 7.08875 28.9942 -185.016 3.86496e-10 1 
3004 4 8.54534 30.6393 -186.186 1.08124e-13 1 
3005 4 8.39968 30.6514 -183.701 1.01713e-08 1 
3006 4 9.56495 28.7885 -184.87 9.23276e-10 1 
3007 1 9.41929 28.8007 -182.385 9.84228e-09 1 
3008 4 10.8759 30.4457 -183.555 1.57026e-08 1 
3009 1 10.7302 30.4579 -181.07 5.44249e-09 1 
3010 1 11.8955 28.595 -182.239 1.0695e-08 1 
3011 1 11.7498 28.6072 -179.755 2.35746e-09 1 
3012 1 13.2064 30.2523 -180.924 1.48115e-08 1 
3013 1 13.0607 30.2645 -178.439 2.56248e-09 1 
3014 1 14.226 28.4016 -179.608 4.10989e-09 1 
3015 1 14.0802 28.4138 -177.124 3.97549e-09 1 
3016 1 15.5368 30.0589 -178.293 2.05354e-09 1 
3017 1 15.3911 30.0711 -175.808 9.99359e-09 1 
3018 1 16.5564 28.2082 -176.978 2.24341e-09 1 
3019 1 16.4107 28.2204 -174.493 4.20394e-09 1 
3020 1 17.8673 29.8654 -175.662 1.10139e-08 1 
3021 1 17.7216 29.8776 -173.177 3.89827e-09 1 
3022 1 18.8869 28.0147 -174.347 5.72482e-09 1 
3023 1 18.7412 28.0269 -171.862 2.34067e-09 1 
3024 1 20.1978 29.672 -173.031 9.99389e-09 1 
3025 1 20.0521 29.6842 -170.547 6.39168e-09 1 
3026 1 21.2174 27.8213 -171.716 4.49797e-09 1 
3027 1 21.0716 27.8335 -169.231 6.11029e-09 1 
3028 1 22.5283 29.4785 -170.4 1.97656e-09 1 
3029 1 22.3825 29.4907 -167.916 3.84838e-09 1 
3030 1 23.5478 27.6278 -169.085 8.69861e-09 1 
3031 1 23.4021 27.64 -166.6 1.15346e-08 1 
3032 1 24.8587 29.2851 -167.77 6.10267e-09 1 
3033 1 24.7131 29.2973 -165.285 3.67049e-09 1 
3034 1 25.8783 27.4344 -166.454 2.32521e-09 1 
3064 4 7.38007 28.97 -189.986 24.7808 5 
3065 4 8.691 30.6272 -188.67 6.1952 5 
3066 4 9.85627 28.7643 -189.84 24.7808 5 
3067 4 9.71061 28.7764 -187.355 7e-14 1 
3068 4 11.1672 30.4215 -188.524 6.1952 5 
3069 4 11.0215 30.4336 -186.039 5.7324e-14 1 
3070 4 12.1868 28.5708 -187.209 1.1e-13 1 
3071 4 12.0411 28.5829 -184.724 2.43394e-09 1 
3072 4 13.4977 30.228 -185.893 7.2124e-14 1 
3073 4 13.3521 30.2401 -183.409 2.54363e-08 1 
3074 4 14.5173 28.3773 -184.578 1.66663e-09 1 
3075 1 14.3717 28.3894 -182.093 1.48497e-08 1 
3076 4 15.8283 30.0344 -183.262 2.31418e-08 1 
3077 1 15.6826 30.0466 -180.778 5.02349e-09 1 
3078 1 16.8479 28.1838 -181.947 7.90421e-09 1 
3079 1 16.7021 28.196 -179.462 3.03536e-09 1 
3080 1 18.1588 29.841 -180.632 7.51144e-09 1 
3081 1 18.013 29.8532 -178.147 2.26648e-09 1 
3082 1 19.1783 27.9903 -179.316 3.86554e-09 1 
3083 1 19.0326 28.0025 -176.831 1.24602e-08 1 
3084 1 20.4892 29.6475 -178.001 1.23458e-08 1 
3085 1 20.3435 29.6598 -175.516 1.29686e-08 1 
3086 1 21.5088 27.7969 -176.685 5.46293e-09 1 
3087 1 21.3631 27.8091 -174.201 4.05807e-09 1 
3088 1 22.8197 29.4541 -175.37 5.00358e-09 1 
3089 1 22.674 29.4663 -172.885 5.443e-09 1 
3090 1 23.8393 27.6034 -174.054 1.74339e-09 1 
3091 1 23.6936 27.6156 -171.57 3.94604e-09 1 
3092 1 25.1502 29.2607 -172.739 1.0152e-08 1 
3093 1 25.0044 29.2729 -170.254 2.56408e-09 1 
3094 1 26.1698 27.41 -171.424 8.42846e-09 1 
3095 1 26.024 27.4222 -168.939 1.0514e-08 1 
3096 1 27.4806 29.0673 -170.108 6.90032e-09 1 
3097 1 27.3349 29.0795 -167.623 8.83094e-09 1 
3098 1 28.5002 27.2166 -168.793 8.69071e-09 1 
3099 1 28.3545 27.2288 -166.308 3.41495e-09 1 
3100 1 29.8111 28.8738 -167.477 7.52975e-09 1 
3102 1 30.8307 27.0232 -166.162 2.35391e-09 1 
3123 4 12.3325 28.5587 -189.693 24.7808 5 
3124 4 13.6434 30.2159 -188.378 6.1952 5 
3125 4 14.8087 28.3531 -189.547 24.7808 5 
3126 4 14.663 28.3652 -187.063 6e-14 1 
3127 4 16.1196 30.0103 -188.232 6.1952 5 
3128 4 15.9739 30.0224 -185.747 1.10324e-13 1 
3129 4 17.1392 28.1595 -186.916 1.1e-13 1 
3130 4 16.9935 28.1716 -184.432 2.42365e-09 1 
3131 4 18.4501 29.8167 -185.601 1.14124e-13 1 
3132 4 18.3045 29.8288 -183.116 2.5419e-08 1 
3133 4 19.4697 27.966 -184.286 1.48178e-08 1 
3134 1 19.3241 27.9781 -181.801 1.98895e-08 1 
3135 1 20.7807 29.6232 -182.97 9.88024e-08 1 
3136 1 20.635 29.6354 -180.485 8.56355e-09 1 
3137 1 21.8003 27.7725 -181.655 1.35882e-08 1 
3138 1 21.6545 27.7847 -179.17 3.51575e-09 1 
3139 1 23.1112 29.4297 -180.339 5.09407e-09 1 
3140 1 22.9654 29.4419 -177.855 5.49691e-09 1 
3141 1 24.1308 27.5791 -179.024 9.94408e-09 1 
3142 1 23.985 27.5912 -176.539 8.48573e-09 1 
3143 1 25.4416 29.2363 -177.708 1.21992e-08 1 
3144 1 25.2959 29.2485 -175.224 9.14492e-09 1 
3145 1 26.4612 27.3856 -176.393 9.81397e-09 1 
3146 1 26.3155 27.3978 -173.908 2.06737e-09 1 
3147 1 27.7721 29.0429 -175.078 3.90806e-09 1 
3148 1 27.6264 29.0551 -172.593 4.41967e-09 1 
3149 1 28.7917 27.1922 -173.762 2.91688e-09 1 
3150 1 28.6459 27.2044 -171.277 4.74577e-09 1 
3151 1 30.1026 28.8495 -172.447 5.30625e-09 1 
3152 1 29.9568 28.8617 -169.962 6.52499e-09 1 
3153 1 31.1221 26.9988 -171.131 3.00923e-09 1 
3154 1 30.9764 27.011 -168.647 6.27552e-09 1 
3155 1 32.433 28.656 -169.816 1.42184e-08 1 
3156 1 32.2873 28.6682 -167.331 2.34237e-09 1 
3157 1 33.4526 26.8054 -168.5 7.94515e-09 1 
3158 1 33.3069 26.8175 -166.016 3.71192e-09 1 
3159 1 34.7635 28.4626 -167.185 3.4822e-09 1 
3161 1 35.7831 26.6119 -165.869 4.30565e-09 1 
3173 4 17.2849 28.1474 -189.401 24.7808 5 
3174 4 18.5958 29.8046 -188.086 6.1952 5 
3175 4 19.7611 27.9418 -189.255 24.7808 5 
3176 4 19.6154 27.9539 -186.77 1e-13 1 
3177 4 21.072 29.599 -187.94 6.1952 5 
3178 4 20.9263 29.6111 -185.455 6.28646e-09 1 
3179 4 22.0916 27.7482 -186.624 1.6e-13 1 
3180 4 21.9459 27.7603 -184.139 2.47686e-08 1 
3181 4 23.4025 29.4054 -185.309 3.11466e-09 1 
3182 1 23.2569 29.4176 -182.824 4.21642e-08 1 
3183 4 24.4221 27.5547 -183.993 1.68846e-08 1 
3184 1 24.2765 27.5669 -181.509 1.32185e-08 1 
3185 1 25.7331 29.2119 -182.678 6.98406e-09 1 
3186 1 25.5874 29.2241 -180.193 1.59771e-08 1 
3187 1 26.7527 27.3612 -181.362 5.97542e-09 1 
3188 1 26.607 27.3734 -178.878 1.18297e-08 1 
3189 1 28.0636 29.0185 -180.047 1.2657e-08 1 
3190 1 27.9178 29.0307 -177.562 4.43418e-09 1 
3191 1 29.0831 27.1678 -178.731 1.11393e-08 1 
3192 1 28.9374 27.18 -176.247 9.48542e-09 1 
3193 1 30.394 28.8251 -177.416 5.63603e-09 1 
3194 1 30.2483 28.8373 -174.931 6.72025e-09 1 
3195 1 31.4136 26.9744 -176.101 6.36877e-09 1 
3196 1 31.2679 26.9866 -173.616 5.27969e-09 1 
3197 1 32.7245 28.6317 -174.785 9.30527e-09 1 
3198 1 32.5788 28.6439 -172.301 6.45706e-09 1 
3199 1 33.744 26.781 -173.47 3.12199e-09 1 
3200 1 33.5983 26.7932 -170.985 5.65429e-09 1 
3201 1 35.0549 28.4382 -172.154 3.41663e-09 1 
3202 1 34.9092 28.4504 -169.67 4.82747e-09 1 
3203 1 36.0745 26.5875 -170.839 4.93849e-09 1 
3204 1 35.9288 26.5997 -168.354 2.15493e-09 1 
3205 1 37.3854 28.2448 -169.523 2.69049e-09 1 
3206 1 37.2397 28.2569 -167.039 3.60085e-09 1 
3207 1 38.405 26.3941 -168.208 2.39971e-09 1 
3208 1 38.2593 26.4062 -165.723 5.93803e-09 1 
3209 1 39.7159 28.0513 -166.893 2.57306e-09 1 
3211 1 40.7355 26.2006 -165.577 4.81825e-09 1 
3215 4 22.2373 27.7362 -189.109 24.7808 5 
3216 4 23.5482 29.3933 -187.793 6.1952 5 
3217 4 24.7134 27.5305 -188.963 18.5856 5 
3218 4 24.5678 27.5426 -186.478 9e-14 1 
3219 4 26.0244 29.1877 -187.647 1.3e-13 1 
3220 4 25.8787 29.1998 -185.163 1.3375e-09 1 
3221 4 27.044 27.337 -186.332 1e-13 1 
3222 4 26.8983 27.3491 -183.847 8.4333e-09 1 
3223 4 28.3549 28.9942 -185.016 3.86711e-10 1 
3224 1 28.2093 29.0063 -182.532 8.7905e-09 1 
3225 4 29.3745 27.1434 -183.701 7.21281e-09 1 
3226 1 29.2289 27.1556 -181.216 1.63992e-08 1 
3227 1 30.6854 28.8007 -182.385 9.84971e-09 1 
3228 1 30.5398 28.8129 -179.901 6.49719e-09 1 
3229 1 31.705 26.95 -181.07 1.23676e-08 1 
3230 1 31.5593 26.9622 -178.585 4.27606e-09 1 
3231 1 33.0159 28.6072 -179.755 2.35746e-09 1 
3232 1 32.8702 28.6194 -177.27 9.90258e-09 1 
3233 1 34.0355 26.7566 -178.439 5.06558e-09 1 
3234 1 33.8897 26.7688 -175.954 5.62215e-09 1 
3235 1 35.3464 28.4138 -177.124 3.97556e-09 1 
3236 1 35.2007 28.426 -174.639 6.1058e-09 1 
3237 1 36.3659 26.5631 -175.808 5.75214e-09 1 
3238 1 36.2202 26.5753 -173.324 8.13228e-09 1 
3239 1 37.6768 28.2204 -174.493 4.20395e-09 1 
3240 1 37.5311 28.2326 -172.008 2.23393e-09 1 
3241 1 38.6964 26.3697 -173.177 7.53049e-09 1 
3242 1 38.5507 26.3819 -170.693 8.76358e-09 1 
3243 1 40.0073 28.0269 -171.862 2.34066e-09 1 
3244 1 39.8616 28.0391 -169.377 4.56263e-09 1 
3245 1 41.0269 26.1762 -170.547 7.22314e-09 1 
3246 1 40.8812 26.1884 -168.062 3.21587e-09 1 
3247 1 42.3378 27.8335 -169.231 6.11031e-09 1 
3248 1 42.1921 27.8457 -166.746 3.97917e-09 1 
3249 4 26.17 29.1756 -190.132 30.976 5 
3250 4 27.1896 27.3249 -188.817 6.1952 5 
3251 4 28.6462 28.97 -189.986 24.7808 5 
3252 4 28.5006 28.9821 -187.501 1.1e-13 1 
3253 4 29.6658 27.1192 -188.67 6.1952 5 
3254 4 29.5202 27.1313 -186.186 7e-14 1 
3255 4 30.9768 28.7764 -187.355 5e-14 1 
3256 4 30.8311 28.7885 -184.87 9.22282e-10 1 
3257 4 31.9964 26.9257 -186.039 1.1e-13 1 
3258 4 31.8507 26.9378 -183.555 1.37502e-08 1 
3259 4 33.3073 28.5829 -184.724 2.43533e-09 1 
3260 1 33.1616 28.595 -182.239 1.06853e-08 1 
3261 4 34.3269 26.7322 -183.409 1.48283e-08 1 
3262 1 34.1812 26.7443 -180.924 6.11657e-09 1 
3263 1 35.6378 28.3894 -182.093 1.48495e-08 1 
3264 1 35.4921 28.4016 -179.608 4.11013e-09 1 
3265 1 36.6574 26.5387 -180.778 5.56108e-09 1 
3266 1 36.5117 26.5509 -178.293 2.44504e-09 1 
3267 1 37.9683 28.196 -179.462 3.03507e-09 1 
3268 1 37.8226 28.2082 -176.978 2.24351e-09 1 
3269 1 38.9879 26.3453 -178.147 3.32725e-09 1 
3270 1 38.8421 26.3575 -175.662 1.24482e-08 1 
3271 1 40.2988 28.0025 -176.831 1.24602e-08 1 
3272 1 40.153 28.0147 -174.347 5.72475e-09 1 
3273 1 41.3183 26.1518 -175.516 1.02597e-08 1 
3274 1 41.1726 26.164 -173.031 5.3154e-09 1 
3275 4 31.1224 28.7643 -189.84 24.7808 5 
3276 4 32.142 26.9136 -188.524 6.1952 5 
3277 4 33.5986 28.5587 -189.693 24.7808 5 
3278 4 33.453 28.5708 -187.209 8e-14 1 
3279 4 34.6182 26.708 -188.378 6.1952 5 
3280 4 34.4726 26.7201 -185.893 1.1e-13 1 
3281 4 35.9292 28.3652 -187.063 8e-14 1 
3282 4 35.7835 28.3773 -184.578 1.66611e-09 1 
3283 4 36.9488 26.5144 -185.747 1.3e-13 1 
3284 4 36.8031 26.5265 -183.262 2.06845e-08 1 
3285 4 38.2597 28.1716 -184.432 2.42172e-09 1 
3286 1 38.114 28.1838 -181.947 7.91008e-09 1 
3287 4 39.2793 26.3209 -183.116 3.21775e-08 1 
3288 1 39.1336 26.3331 -180.632 3.29685e-09 1 
3289 1 40.5902 27.9781 -181.801 1.98935e-08 1 
3290 1 40.4445 27.9903 -179.316 3.86516e-09 1 
3291 1 41.6098 26.1275 -180.485 9.29064e-09 1 
3292 1 41.4641 26.1397 -178.001 7.63907e-09 1 
3293 4 36.0748 28.3531 -189.547 24.7808 5 
3294 4 37.0944 26.5023 -188.232 6.1952 5 
3295 4 38.551 28.1474 -189.401 24.7808 5 
3296 4 38.4054 28.1595 -186.916 1.4e-13 1 
3297 4 39.5706 26.2967 -188.086 6.1952 5 
3298 4 39.425 26.3088 -185.601 6e-14 1 
3299 4 40.8816 27.9539 -186.77 1.29929e-13 1 
3300 4 40.7359 27.966 -184.286 1.48201e-08 1 
3301 4 41.9012 26.1032 -185.455 5.68963e-09 1 
3302 1 41.7555 26.1153 -182.97 7.83715e-08 1 
3303 4 41.0272 27.9418 -189.255 24.7808 5 
3304 4 42.0468 26.0911 -187.94 6.1952 5 
5417 1 43.3574 25.9828 -167.916 3.9657e-09 1 
5418 1 43.2117 25.995 -165.431 1.30136e-09 1 
5419 1 44.6683 27.64 -166.6 1.15346e-08 1 
5421 1 3.15561 25.7894 -165.285 1.5466e-08 1 
5489 1 42.6292 27.8091 -174.201 4.05798e-09 1 
5490 1 42.4835 27.8213 -171.716 4.49804e-09 1 
5491 1 43.6488 25.9584 -172.885 4.68172e-09 1 
5492 1 43.5031 25.9706 -170.4 1.4294e-08 1 
5493 1 2.4274 27.6156 -171.57 3.94606e-09 1 
5494 1 44.814 27.6278 -169.085 8.69861e-09 1 
5495 1 3.44696 25.765 -170.254 1.45118e-08 1 
5496 1 3.30128 25.7772 -167.77 8.67786e-09 1 
5497 1 4.75786 27.4222 -168.939 1.0514e-08 1 
5498 1 4.61219 27.4344 -166.454 2.32519e-09 1 
5499 1 5.77747 25.5716 -167.623 8.47565e-09 1 
5501 1 7.08838 27.2288 -166.308 3.41493e-09 1 
5563 1 42.9207 27.7847 -179.17 3.51609e-09 1 
5564 1 42.775 27.7969 -176.685 5.4628e-09 1 
5565 1 43.9403 25.934 -177.855 2.96822e-09 1 
5566 1 43.7945 25.9462 -175.37 7.37017e-09 1 
5567 1 2.71883 27.5912 -176.539 8.48555e-09 1 
5568 1 2.57312 27.6034 -174.054 1.74338e-09 1 
5569 1 3.7384 25.7405 -175.224 6.50422e-09 1 
5570 1 3.59269 25.7528 -172.739 3.22501e-09 1 
5571 1 5.04932 27.3978 -173.908 2.06736e-09 1 
5572 1 4.90359 27.41 -171.424 8.4284e-09 1 
5573 1 6.06889 25.5471 -172.593 5.8356e-09 1 
5574 1 5.92316 25.5594 -170.108 1.06933e-08 1 
5575 1 7.37978 27.2044 -171.277 4.74575e-09 1 
5576 1 7.23406 27.2166 -168.793 8.69071e-09 1 
5577 1 8.39934 25.3537 -169.962 1.24648e-08 1 
5578 1 8.25367 25.366 -167.477 8.09655e-09 1 
5579 1 9.71026 27.011 -168.647 6.27553e-09 1 
5580 1 9.56458 27.0232 -166.162 2.3539e-09 1 
5581 1 10.7299 25.1603 -167.331 3.63306e-09 1 
5583 1 12.0408 26.8175 -166.016 3.7119e-09 1 
5637 4 43.2121 27.7603 -184.139 2.47733e-08 1 
5638 1 43.0664 27.7725 -181.655 1.35861e-08 1 
5639 1 44.2317 25.9097 -182.824 3.3625e-08 1 
5640 1 44.086 25.9218 -180.339 8.27567e-09 1 
5641 1 3.01032 27.5669 -181.509 1.32198e-08 1 
5642 1 2.8646 27.5791 -179.024 9.94365e-09 1 
5643 1 4.02989 25.7162 -180.193 9.77381e-09 1 
5644 1 3.88414 25.7284 -177.708 3.71987e-09 1 
5645 1 5.34079 27.3734 -178.878 1.18292e-08 1 
5646 1 5.19504 27.3856 -176.393 9.81398e-09 1 
5647 1 6.36033 25.5227 -177.562 3.71918e-09 1 
5648 1 6.21459 25.5349 -175.078 1.07161e-08 1 
5649 1 7.67122 27.18 -176.247 9.48519e-09 1 
5650 1 7.5255 27.1922 -173.762 2.91688e-09 1 
5651 1 8.69079 25.3293 -174.931 2.75661e-09 1 
5652 1 8.54508 25.3415 -172.447 4.19036e-09 1 
5653 1 10.0017 26.9866 -173.616 5.27966e-09 1 
5654 1 9.85597 26.9988 -171.131 3.00923e-09 1 
5655 1 11.0213 25.1359 -172.301 1.59462e-09 1 
5656 1 10.8755 25.1481 -169.816 5.59403e-09 1 
5657 1 12.3322 26.7932 -170.985 5.65428e-09 1 
5658 1 12.1865 26.8054 -168.5 7.94513e-09 1 
5659 1 13.3517 24.9425 -169.67 9.14196e-09 1 
5660 1 13.2061 24.9547 -167.185 6.27839e-09 1 
5661 1 14.6627 26.5997 -168.354 2.15492e-09 1 
5662 1 14.517 26.6119 -165.869 4.30565e-09 1 
5663 1 15.6822 24.749 -167.039 4.68898e-09 1 
5665 1 16.9931 26.4062 -165.723 5.93802e-09 1 
5709 4 43.5034 27.7362 -189.109 24.7808 5 
5710 4 43.3578 27.7482 -186.624 1.61245e-13 1 
5711 4 44.523 25.8854 -187.793 6.1952 5 
5712 4 44.3774 25.8975 -185.309 4.84441e-09 1 
5713 4 3.30163 27.5426 -186.478 1.1e-13 1 
5714 4 3.15597 27.5547 -183.993 1.68847e-08 1 
5715 4 4.32124 25.6919 -185.163 2.0344e-09 1 
5716 1 4.17557 25.704 -182.678 1.02079e-08 1 
5717 4 5.63217 27.3491 -183.847 8.42595e-09 1 
5718 1 5.4865 27.3612 -181.362 5.98238e-09 1 
5719 1 6.65177 25.4984 -182.532 5.22742e-09 1 
5720 1 6.50608 25.5105 -180.047 1.06098e-08 1 
5721 1 7.9627 27.1556 -181.216 1.64058e-08 1 
5722 1 7.81698 27.1678 -178.731 1.114e-08 1 
5723 1 8.98227 25.3049 -179.901 8.87696e-09 1 
5724 1 8.83651 25.3171 -177.416 1.88099e-08 1 
5725 1 10.2931 26.9622 -178.585 4.27574e-09 1 
5726 1 10.1474 26.9744 -176.101 6.36889e-09 1 
5727 1 11.3127 25.1115 -177.27 1.79075e-09 1 
5728 1 11.167 25.1237 -174.785 2.26689e-09 1 
5729 1 12.6236 26.7688 -175.954 5.62197e-09 1 
5730 1 12.4779 26.781 -173.47 3.12195e-09 1 
5731 1 13.6431 24.9181 -174.639 9.84893e-09 1 
5732 1 13.4974 24.9303 -172.154 4.55178e-09 1 
5733 1 14.9541 26.5753 -173.324 8.13229e-09 1 
5734 1 14.8083 26.5875 -170.839 4.93846e-09 1 
5735 1 15.9736 24.7246 -172.008 5.96138e-09 1 
5736 1 15.8279 24.7368 -169.524 3.06504e-09 1 
5737 1 17.2845 26.3819 -170.693 8.76357e-09 1 
5738 1 17.1388 26.3941 -168.208 2.39972e-09 1 
5739 1 18.3041 24.5312 -169.377 7.92663e-09 1 
5740 1 18.1584 24.5434 -166.893 3.14e-09 1 
5741 1 19.615 26.1884 -168.062 3.21589e-09 1 
5742 1 19.4693 26.2006 -165.577 4.81825e-09 1 
5743 1 20.6346 24.3377 -166.746 3.22151e-09 1 
5745 1 21.9456 25.995 -165.431 1.30137e-09 1 
5781 4 3.44729 27.5305 -188.963 12.3904 5 
5782 4 4.61256 25.6677 -190.132 30.976 5 
5783 4 4.4669 25.6798 -187.647 1.5e-13 1 
5784 4 5.92349 27.3249 -188.817 6.1952 5 
5785 4 5.77783 27.337 -186.332 1.4e-13 1 
5786 4 6.9431 25.4741 -187.501 1e-13 1 
5787 4 6.79744 25.4862 -185.016 8.59832e-10 1 
5788 4 8.25402 27.1313 -186.186 4e-14 1 
5789 4 8.10837 27.1434 -183.701 7.21692e-09 1 
5790 4 9.27363 25.2806 -184.87 1.25808e-09 1 
5791 1 9.12797 25.2927 -182.385 6.3546e-09 1 
5792 4 10.5846 26.9378 -183.555 1.37543e-08 1 
5793 1 10.4389 26.95 -181.07 1.23662e-08 1 
5794 1 11.6042 25.0871 -182.239 2.0956e-08 1 
5795 1 11.4584 25.0993 -179.755 3.22067e-09 1 
5796 1 12.9151 26.7443 -180.924 6.11429e-09 1 
5797 1 12.7693 26.7566 -178.439 5.06545e-09 1 
5798 1 13.9346 24.8937 -179.608 5.85273e-09 1 
5799 1 13.7889 24.9059 -177.124 3.87963e-09 1 
5800 1 15.2455 26.5509 -178.293 2.44469e-09 1 
5801 1 15.0998 26.5631 -175.808 5.75199e-09 1 
5802 1 16.2651 24.7003 -176.978 3.11283e-09 1 
5803 1 16.1194 24.7124 -174.493 4.56964e-09 1 
5804 1 17.576 26.3575 -175.662 1.24481e-08 1 
5805 1 17.4303 26.3697 -173.177 7.53053e-09 1 
5806 1 18.5956 24.5068 -174.347 2.1823e-09 1 
5807 1 18.4498 24.519 -171.862 2.95541e-09 1 
5808 1 19.9065 26.164 -173.031 5.31535e-09 1 
5809 1 19.7607 26.1762 -170.547 7.2231e-09 1 
5810 1 20.926 24.3133 -171.716 2.36357e-09 1 
5811 1 20.7803 24.3255 -169.231 6.87893e-09 1 
5812 1 22.2369 25.9706 -170.4 1.4294e-08 1 
5813 1 22.0912 25.9828 -167.916 3.9657e-09 1 
5814 1 23.2565 24.1199 -169.085 5.39923e-09 1 
5815 1 23.1108 24.1321 -166.6 6.15673e-09 1 
5816 1 24.5674 25.7772 -167.77 8.67785e-09 1 
5817 1 24.4218 25.7894 -165.285 1.5466e-08 1 
5818 1 25.587 23.9265 -166.454 3.58533e-09 1 
5848 4 7.08875 25.462 -189.986 24.7808 5 
5849 4 8.39968 27.1192 -188.67 6.1952 5 
5850 4 9.56495 25.2564 -189.84 24.7808 5 
5851 4 9.41929 25.2685 -187.355 5e-14 1 
5852 4 10.8759 26.9136 -188.524 6.1952 5 
5853 4 10.7302 26.9257 -186.039 9e-14 1 
5854 4 11.8955 25.0629 -187.209 7e-14 1 
5855 4 11.7498 25.075 -184.724 7.98193e-10 1 
5856 4 13.2064 26.7201 -185.893 1e-13 1 
5857 4 13.0608 26.7322 -183.409 1.48438e-08 1 
5858 4 14.226 24.8693 -184.578 1.6646e-09 1 
5859 1 14.0804 24.8815 -182.093 1.09684e-08 1 
5860 4 15.537 26.5265 -183.262 2.06866e-08 1 
5861 1 15.3913 26.5387 -180.778 5.55735e-09 1 
5862 1 16.5566 24.6759 -181.947 1.46432e-08 1 
5863 1 16.4108 24.688 -179.462 1.7567e-09 1 
5864 1 17.8675 26.3331 -180.632 3.30223e-09 1 
5865 1 17.7217 26.3453 -178.147 3.32763e-09 1 
5866 1 18.887 24.4824 -179.316 1.52699e-08 1 
5867 1 18.7413 24.4946 -176.831 5.86955e-09 1 
5868 1 20.1979 26.1397 -178.001 7.63955e-09 1 
5869 1 20.0522 26.1518 -175.516 1.02599e-08 1 
5870 1 21.2175 24.289 -176.685 5.15536e-09 1 
5871 1 21.0717 24.3011 -174.201 4.97204e-09 1 
5872 1 22.5284 25.9462 -175.37 7.3703e-09 1 
5873 1 22.3827 25.9584 -172.885 4.68173e-09 1 
5874 1 23.5479 24.0955 -174.054 4.00259e-09 1 
5875 1 23.4022 24.1077 -171.57 1.1354e-08 1 
5876 1 24.8589 25.7528 -172.739 3.2251e-09 1 
5877 1 24.7131 25.765 -170.254 1.45118e-08 1 
5878 1 25.8784 23.9021 -171.424 2.69756e-09 1 
5879 1 25.7327 23.9143 -168.939 6.0707e-09 1 
5880 1 27.1893 25.5594 -170.108 1.06933e-08 1 
5881 1 27.0436 25.5716 -167.623 8.47566e-09 1 
5882 1 28.2089 23.7087 -168.793 5.05313e-09 1 
5883 1 28.0632 23.7209 -166.308 8.93961e-09 1 
5884 1 29.5198 25.366 -167.477 8.09657e-09 1 
5886 1 30.5394 23.5153 -166.162 3.92453e-09 1 
5908 4 12.0411 25.0508 -189.693 24.7808 5 
5909 4 13.3521 26.708 -188.378 6.1952 5 
5910 4 14.5173 24.8451 -189.547 24.7808 5 
5911 4 14.3717 24.8572 -187.063 1.1e-13 1 
5912 4 15.8283 26.5023 -188.232 6.1952 5 
5913 4 15.6826 26.5144 -185.747 1.6e-13 1 
5914 4 16.8479 24.6516 -186.916 1.3e-13 1 
5915 4 16.7022 24.6637 -184.432 3.74386e-09 1 
5916 4 18.1588 26.3088 -185.601 9e-14 1 
5917 4 18.0132 26.3209 -183.116 3.21474e-08 1 
5918 4 19.1784 24.4581 -184.286 1.54023e-08 1 
5919 1 19.0328 24.4702 -181.801 1.19797e-08 1 
5920 1 20.4893 26.1153 -182.97 7.83616e-08 1 
5921 1 20.3437 26.1275 -180.485 9.28999e-09 1 
5922 1 21.5089 24.2646 -181.655 7.2917e-09 1 
5923 1 21.3632 24.2768 -179.17 1.19811e-08 1 
5924 1 22.8199 25.9218 -180.339 8.27597e-09 1 
5925 1 22.6741 25.934 -177.855 2.96827e-09 1 
5926 1 23.8394 24.0711 -179.024 3.51028e-09 1 
5927 1 23.6937 24.0833 -176.539 2.99964e-09 1 
5928 1 25.1503 25.7284 -177.708 3.72002e-09 1 
5929 1 25.0046 25.7405 -175.224 6.50435e-09 1 
5930 1 26.1699 23.8777 -176.393 5.72218e-09 1 
5931 1 26.0241 23.8899 -173.908 2.0981e-09 1 
5932 1 27.4807 25.5349 -175.078 1.0716e-08 1 
5933 1 27.3351 25.5471 -172.593 5.83555e-09 1 
5934 1 28.5003 23.6842 -173.762 1.60116e-09 1 
5935 1 28.3546 23.6964 -171.277 3.05719e-09 1 
5936 1 29.8112 25.3415 -172.447 4.19034e-09 1 
5937 1 29.6655 25.3537 -169.962 1.24648e-08 1 
5938 1 30.8308 23.4908 -171.131 3.13417e-09 1 
5939 1 30.6851 23.5031 -168.647 2.89669e-09 1 
5940 1 32.1417 25.1481 -169.816 5.59407e-09 1 
5941 1 31.996 25.1603 -167.331 3.63308e-09 1 
5942 1 33.1613 23.2974 -168.5 7.14301e-09 1 
5943 1 33.0156 23.3096 -166.016 5.39625e-09 1 
5944 1 34.4722 24.9547 -167.185 6.2784e-09 1 
5946 1 35.4918 23.104 -165.87 8.50975e-09 1 
5959 4 16.9935 24.6395 -189.401 24.7808 5 
5960 4 18.3045 26.2967 -188.086 6.1952 5 
5961 4 19.4697 24.4339 -189.255 24.7808 5 
5962 4 19.3241 24.446 -186.77 1.1e-13 1 
5963 4 20.7807 26.0911 -187.94 6.1952 5 
5964 4 20.635 26.1032 -185.455 5.68987e-09 1 
5965 4 21.8003 24.2403 -186.624 1.1e-13 1 
5966 4 21.6546 24.2524 -184.139 2.77455e-08 1 
5967 4 23.1112 25.8975 -185.309 4.84412e-09 1 
5968 1 22.9655 25.9097 -182.824 3.36327e-08 1 
5969 4 24.1308 24.0468 -183.993 2.13521e-08 1 
5970 1 23.9851 24.059 -181.509 9.34261e-09 1 
5971 1 25.4417 25.704 -182.678 1.02089e-08 1 
5972 1 25.2961 25.7162 -180.193 9.7729e-09 1 
5973 1 26.4613 23.8533 -181.362 8.43543e-09 1 
5974 1 26.3156 23.8655 -178.878 2.14831e-09 1 
5975 1 27.7722 25.5105 -180.047 1.06085e-08 1 
5976 1 27.6265 25.5227 -177.562 3.71904e-09 1 
5977 1 28.7918 23.6598 -178.732 1.79611e-08 1 
5978 1 28.6461 23.672 -176.247 2.65515e-09 1 
5979 1 30.1027 25.3171 -177.416 1.88099e-08 1 
5980 1 29.957 25.3293 -174.931 2.75663e-09 1 
5981 1 31.1222 23.4664 -176.101 2.86696e-09 1 
5982 1 30.9765 23.4786 -173.616 7.5461e-09 1 
5983 1 32.4331 25.1237 -174.785 2.26692e-09 1 
5984 1 32.2874 25.1359 -172.301 1.59463e-09 1 
5985 1 33.4527 23.273 -173.47 2.89904e-09 1 