ITEM: TIMESTEP
0
ITEM: NUMBER OF ATOMS
50854
ITEM: BOX BOUNDS xy xz yz pp pp ss
0 48.428 2.58666
0 64.9026 2.73036
-193.042 214.513 33.3283
ITEM: ATOMS id type x y z c_csym c_cna 
528 1 24.6937 31.0953 -174.113 4.45898e-09 1 
529 1 26.706 30.9304 -171.23 1.59912e-09 1 
530 1 26.2753 30.9657 -168.778 4.67656e-09 1 
531 1 28.7183 30.7656 -168.346 2.62071e-09 1 
547 1 25.5553 31.0247 -179.016 6.19251e-09 1 
548 1 25.1245 31.06 -176.564 3.694e-09 1 
549 1 27.5675 30.8599 -176.132 3.04412e-09 1 
550 1 27.1368 30.8951 -173.681 1.1677e-09 1 
551 1 29.5798 30.695 -173.248 3.91999e-09 1 
552 1 29.149 30.7303 -170.797 2.12892e-09 1 
553 1 31.592 30.5302 -170.364 1.71322e-09 1 
554 1 31.1613 30.5655 -167.913 5.18263e-09 1 
565 4 24.4049 31.119 -186.802 5.43054e-08 1 
566 1 26.4169 30.9541 -183.918 6.84919e-09 1 
567 1 25.9861 30.9894 -181.467 3.05901e-09 1 
568 1 28.4291 30.7893 -181.034 2.80897e-09 1 
569 1 27.9983 30.8246 -178.583 1.60863e-09 1 
570 1 30.4414 30.6244 -178.151 2.8153e-09 1 
571 1 30.0106 30.6597 -175.699 5.39638e-09 1 
572 1 32.4536 30.4596 -175.267 1.87796e-09 1 
573 1 32.0228 30.4949 -172.816 6.90131e-09 1 
574 1 34.4658 30.2947 -172.383 6.13647e-09 1 
575 1 34.0351 30.3301 -169.932 1.44933e-09 1 
576 1 36.4781 30.1299 -169.499 4.36381e-09 1 
584 4 25.2671 31.0483 -191.704 12.3904 5 
585 4 24.836 31.0836 -189.253 9.71249e-14 1 
586 4 27.2789 30.8835 -188.82 1.0618e-13 1 
587 4 26.8478 30.9188 -186.369 8.88215e-08 1 
588 4 29.2908 30.7187 -185.937 1.56403e-07 1 
589 1 28.86 30.754 -183.485 1.07156e-09 1 
590 1 31.303 30.5539 -183.053 4.39699e-09 1 
591 1 30.8721 30.5891 -180.602 3.10829e-09 1 
592 1 33.3151 30.389 -180.169 4.11722e-09 1 
593 1 32.8844 30.4243 -177.718 1.31352e-09 1 
594 1 35.3274 30.2242 -177.285 2.37937e-09 1 
595 1 34.8966 30.2595 -174.834 1.83283e-09 1 
596 1 37.3396 30.0593 -174.402 2.77358e-09 1 
597 1 36.9089 30.0946 -171.951 1.59532e-09 1 
598 1 39.3519 29.8945 -171.518 3.53893e-09 1 
599 1 38.9211 29.9298 -169.067 7.97474e-10 1 
600 1 41.3642 29.7296 -168.634 1.44371e-09 1 
603 4 27.7101 30.8482 -191.271 6.1952 5 
604 4 30.153 30.6481 -190.839 6.1952 5 
605 4 29.7219 30.6834 -188.388 4.898e-14 1 
606 4 32.1649 30.4832 -187.955 4.40375e-09 1 
607 1 31.7338 30.5186 -185.504 5.52263e-08 1 
608 1 34.1768 30.3184 -185.071 2.97372e-08 1 
609 1 33.746 30.3537 -182.62 3.12244e-09 1 
610 1 36.189 30.1536 -182.188 1.65256e-09 1 
611 1 35.7581 30.1889 -179.737 4.81347e-09 1 
612 1 38.2011 29.9888 -179.304 1.13199e-08 1 
613 1 37.7704 30.024 -176.853 1.65146e-09 1 
614 1 40.2134 29.8239 -176.42 1.38613e-09 1 
615 1 39.7826 29.8592 -173.969 2.95961e-09 1 
616 1 42.2257 29.659 -173.537 2.13004e-09 1 
617 1 41.7949 29.6943 -171.085 2.27558e-09 1 
618 4 33.0271 30.4126 -192.857 30.976 5 
619 4 32.596 30.4479 -190.406 6.098e-14 1 
620 4 35.0389 30.2478 -189.974 5.898e-14 1 
621 4 34.6078 30.2831 -187.523 1.05252e-08 1 
622 4 37.0508 30.083 -187.09 2.70614e-08 1 
623 1 36.6198 30.1183 -184.639 1.52986e-08 1 
624 1 39.0628 29.9181 -184.206 1.37555e-08 1 
625 1 38.632 29.9534 -181.755 2.49743e-09 1 
626 1 41.075 29.7533 -181.323 2.03525e-09 1 
627 1 40.6442 29.7886 -178.871 6.35183e-09 1 
628 1 43.0872 29.5885 -178.439 4.96174e-09 1 
629 1 42.6564 29.6238 -175.988 3.32473e-09 1 
630 4 35.47 30.2125 -192.425 24.7808 5 
631 4 37.913 30.0123 -191.992 12.3904 5 
632 4 37.4819 30.0477 -189.541 2.818e-14 1 
633 4 39.9248 29.8475 -189.109 7.458e-14 1 
634 4 39.4937 29.8828 -186.658 5.46254e-08 1 
635 4 41.9367 29.6827 -186.225 1.15942e-07 1 
636 1 41.5058 29.718 -183.774 7.28154e-09 1 
637 4 40.356 29.8122 -191.56 6.1952 5 
638 4 42.7989 29.6121 -191.127 6.1952 5 
639 4 42.3678 29.6474 -188.676 1.33823e-13 1 
2696 1 44.2379 29.4942 -170.653 2.99e-09 1 
2697 1 43.8072 29.5295 -168.202 2.4988e-09 1 
2698 1 3.13917 29.3293 -167.769 6.65003e-09 1 
2779 1 45.0994 29.4236 -175.555 2.75647e-09 1 
2780 1 44.6687 29.4589 -173.104 3.63377e-09 1 
2781 1 3.13824 31.0953 -174.113 4.45899e-09 1 
2782 1 4.00068 29.2587 -172.671 1.30021e-09 1 
2783 1 3.56993 29.294 -170.22 1.58542e-09 1 
2784 1 5.15051 30.9304 -171.23 1.59916e-09 1 
2785 1 4.71976 30.9657 -168.778 4.67657e-09 1 
2786 1 6.01295 29.0939 -169.788 1.74515e-09 1 
2788 1 7.16278 30.7656 -168.346 2.62075e-09 1 
2861 1 43.9488 29.5179 -183.341 7.67581e-09 1 
2862 1 43.518 29.5532 -180.89 2.02286e-09 1 
2863 1 2.84999 29.353 -180.458 1.23612e-09 1 
2864 1 2.41918 29.3883 -178.006 7.47028e-09 1 
2865 1 3.9998 31.0247 -179.016 6.19229e-09 1 
2866 1 3.56901 31.06 -176.564 3.69394e-09 1 
2867 1 4.86222 29.1882 -177.574 2.53117e-09 1 
2868 1 4.43144 29.2235 -175.123 1.32027e-09 1 
2869 1 6.01203 30.8599 -176.132 3.04417e-09 1 
2870 1 5.58126 30.8951 -173.681 1.16773e-09 1 
2871 1 6.87445 29.0233 -174.69 2.57607e-09 1 
2872 1 6.44369 29.0586 -172.239 4.07987e-09 1 
2873 1 8.02427 30.695 -173.248 3.91997e-09 1 
2874 1 7.59352 30.7303 -170.797 2.12889e-09 1 
2875 1 8.88671 28.8585 -171.806 1.02049e-09 1 
2876 1 8.45597 28.8938 -169.355 1.14831e-09 1 
2877 1 10.0365 30.5302 -170.364 1.71325e-09 1 
2878 1 9.6058 30.5655 -167.913 5.18265e-09 1 
2879 1 10.899 28.6936 -168.923 1.33524e-09 1 
2945 4 44.8108 29.4473 -188.244 5.01938e-09 1 
2946 1 44.3797 29.4826 -185.792 1.02251e-07 1 
2947 4 2.84937 31.119 -186.802 5.43813e-08 1 
2948 1 3.71167 29.2824 -185.36 4.3421e-08 1 
2949 1 3.28081 29.3177 -182.909 4.71843e-09 1 
2950 1 4.86144 30.9541 -183.918 6.8509e-09 1 
2951 1 4.43061 30.9894 -181.467 3.05869e-09 1 
2952 1 5.72382 29.1176 -182.476 5.91159e-09 1 
2953 1 5.29301 29.1529 -180.025 1.25793e-09 1 
2954 1 6.87362 30.7893 -181.034 2.80899e-09 1 
2955 1 6.44282 30.8246 -178.583 1.60864e-09 1 
2956 1 7.73603 28.9527 -179.592 2.34852e-09 1 
2957 1 7.30524 28.988 -177.141 7.0112e-09 1 
2958 1 8.88584 30.6244 -178.151 2.81537e-09 1 
2959 1 8.45505 30.6597 -175.699 5.39642e-09 1 
2960 1 9.74826 28.7879 -176.709 1.99781e-09 1 
2961 1 9.31746 28.8232 -174.258 6.73171e-09 1 
2962 1 10.8981 30.4596 -175.267 1.87792e-09 1 
2963 1 10.4673 30.4949 -172.816 6.90131e-09 1 
2964 1 11.7605 28.623 -173.825 5.43989e-09 1 
2965 1 11.3297 28.6583 -171.374 1.29083e-09 1 
2966 1 12.9103 30.2947 -172.383 6.13639e-09 1 
2967 1 12.4796 30.3301 -169.932 1.44934e-09 1 
2968 1 13.7728 28.4582 -170.941 8.30707e-10 1 
2969 1 13.342 28.4935 -168.49 3.18988e-09 1 
2970 1 14.9226 30.1299 -169.499 4.36386e-09 1 
2972 1 15.785 28.2934 -168.057 2.7505e-09 1 
3028 4 45.2419 29.4119 -190.695 6.1952 5 
3029 4 3.71159 31.0483 -191.704 12.3904 5 
3030 4 3.28048 31.0836 -189.253 4.3928e-14 1 
3031 4 4.57381 29.2118 -190.262 3e-14 1 
3032 4 4.1427 29.2471 -187.811 6.71223e-09 1 
3033 4 5.72344 30.8835 -188.82 7.458e-14 1 
3034 4 5.29233 30.9188 -186.369 8.87708e-08 1 
3035 4 6.58566 29.047 -187.378 1.25351e-08 1 
3036 1 6.15466 29.0823 -184.927 3.18241e-08 1 
3037 4 7.73529 30.7187 -185.937 1.56329e-07 1 
3038 1 7.30445 30.754 -183.485 1.07192e-09 1 
3039 1 8.59766 28.8822 -184.495 1.525e-08 1 
3040 1 8.16682 28.9174 -182.044 5.75564e-09 1 
3041 1 9.74745 30.5539 -183.053 4.39381e-09 1 
3042 1 9.31662 30.5891 -180.602 3.10755e-09 1 
3043 1 10.6098 28.7173 -181.611 8.42447e-09 1 
3044 1 10.179 28.7526 -179.16 1.13476e-09 1 
3045 1 11.7596 30.389 -180.169 4.11628e-09 1 
3046 1 11.3289 30.4243 -177.718 1.31333e-09 1 
3047 1 12.622 28.5525 -178.727 2.18394e-09 1 
3048 1 12.1913 28.5877 -176.276 1.07573e-09 1 
3049 1 13.7719 30.2242 -177.285 2.37929e-09 1 
3050 1 13.3411 30.2595 -174.834 1.83284e-09 1 
3051 1 14.6343 28.3876 -175.844 1.82363e-09 1 
3052 1 14.2035 28.4229 -173.392 6.2545e-09 1 
3053 1 15.7841 30.0593 -174.402 2.77366e-09 1 
3054 1 15.3533 30.0946 -171.951 1.59531e-09 1 
3055 1 16.6465 28.2228 -172.96 3.10591e-09 1 
3056 1 16.2158 28.2581 -170.509 2.23579e-09 1 
3057 1 17.7964 29.8945 -171.518 3.53904e-09 1 
3058 1 17.3656 29.9298 -169.067 7.97506e-10 1 
3059 1 18.6588 28.0579 -170.076 6.86499e-10 1 
3061 1 19.8087 29.7296 -168.634 1.44372e-09 1 
3109 4 5.00492 29.1765 -192.713 30.976 5 
3110 4 6.15455 30.8482 -191.271 6.1952 5 
3111 4 7.44788 28.9763 -192.281 24.7808 5 
3112 4 7.01677 29.0117 -189.83 5e-14 1 
3113 4 8.59751 30.6481 -190.839 6.1952 5 
3114 4 8.1664 30.6834 -188.388 7.738e-14 1 
3115 4 9.45973 28.8115 -189.397 5e-14 1 
3116 4 9.02862 28.8468 -186.946 3.4191e-08 1 
3117 4 10.6094 30.4832 -187.955 4.41135e-09 1 
3118 1 10.1783 30.5186 -185.504 5.51572e-08 1 
3119 4 11.4716 28.6467 -186.513 7.03443e-08 1 
3120 1 11.0407 28.682 -184.062 9.67992e-09 1 
3121 1 12.6213 30.3184 -185.071 2.97453e-08 1 
3122 1 12.1904 30.3537 -182.62 3.12141e-09 1 
3123 1 13.4837 28.4819 -183.63 2.35286e-09 1 
3124 1 13.0528 28.5172 -181.178 3.5567e-09 1 
3125 1 14.6335 30.1536 -182.188 1.65264e-09 1 
3126 1 14.2026 30.1889 -179.737 4.81329e-09 1 
3127 1 15.4958 28.317 -180.746 3.16961e-09 1 
3128 1 15.0651 28.3523 -178.295 1.21022e-09 1 
3129 1 16.6456 29.9888 -179.304 1.132e-08 1 
3130 1 16.2149 30.024 -176.853 1.65163e-09 1 
3131 1 17.5081 28.1522 -177.862 2.74884e-09 1 
3132 1 17.0773 28.1875 -175.411 1.26837e-09 1 
3133 1 18.6579 29.8239 -176.42 1.38621e-09 1 
3134 1 18.2271 29.8592 -173.969 2.95954e-09 1 
3135 1 19.5203 27.9873 -174.978 2.2436e-09 1 
3136 1 19.0896 28.0226 -172.527 2.28727e-09 1 
3137 1 20.6702 29.659 -173.537 2.13003e-09 1 
3138 1 20.2394 29.6943 -171.085 2.27559e-09 1 
3139 1 21.5326 27.8225 -172.095 1.62779e-09 1 
3140 1 21.1018 27.8578 -169.644 3.52993e-09 1 
3141 1 22.6824 29.4942 -170.653 2.99001e-09 1 
3142 1 22.2517 29.5295 -168.202 2.49882e-09 1 
3143 1 23.5449 27.6576 -169.211 2.36495e-09 1 
3145 1 24.6947 29.3293 -167.769 6.65006e-09 1 
3183 4 9.89084 28.7762 -191.848 18.5856 5 
3184 4 11.4716 30.4126 -192.857 30.976 5 
3185 4 11.0405 30.4479 -190.406 6.178e-14 1 
3186 4 12.3338 28.5761 -191.416 6.1952 5 
3187 4 11.9027 28.6114 -188.964 5e-14 1 
3188 4 13.4834 30.2478 -189.974 1.458e-14 1 
3189 4 13.0523 30.2831 -187.523 1.05152e-08 1 
3190 4 14.3456 28.4113 -188.532 1.61559e-27 1 
3191 4 13.9145 28.4466 -186.081 1.3233e-07 1 
3192 4 15.4953 30.083 -187.09 2.70152e-08 1 
3193 1 15.0643 30.1183 -184.639 1.53068e-08 1 
3194 1 16.3575 28.2464 -185.648 5.98203e-08 1 
3195 1 15.9267 28.2817 -183.197 7.46452e-09 1 
3196 1 17.5073 29.9181 -184.206 1.37516e-08 1 
3197 1 17.0765 29.9534 -181.755 2.49672e-09 1 
3198 1 18.3697 28.0816 -182.764 4.51451e-09 1 
3199 1 17.9388 28.1169 -180.313 3.80266e-09 1 
3200 1 19.5195 29.7533 -181.323 2.03544e-09 1 
3201 1 19.0887 29.7886 -178.871 6.35188e-09 1 
3202 1 20.3819 27.9168 -179.881 5.19085e-09 1 
3203 1 19.9511 27.9521 -177.43 3.60162e-09 1 
3204 1 21.5317 29.5885 -178.439 4.96175e-09 1 
3205 1 21.1009 29.6238 -175.988 3.3247e-09 1 
3206 1 22.3941 27.7519 -176.997 3.32608e-09 1 
3207 1 21.9633 27.7872 -174.546 4.44656e-09 1 
3208 1 23.5439 29.4236 -175.555 2.75639e-09 1 
3209 1 23.1132 29.4589 -173.104 3.63376e-09 1 
3210 1 24.4064 27.587 -174.113 3.60056e-09 1 
3211 1 23.9756 27.6223 -171.662 1.99869e-09 1 
3212 1 25.5562 29.2587 -172.671 1.30019e-09 1 
3213 1 25.1254 29.294 -170.22 1.5854e-09 1 
3214 1 26.4186 27.4222 -171.23 2.54705e-09 1 
3215 1 25.9879 27.4575 -168.778 4.04629e-09 1 
3216 1 27.5685 29.0939 -169.788 1.74515e-09 1 
3218 1 28.4309 27.2574 -168.346 2.16724e-09 1 
3248 4 13.9145 30.2125 -192.425 24.7808 5 
3249 4 14.7768 28.3759 -190.983 6.1952 5 
3250 4 16.3575 30.0123 -191.992 18.5856 5 
3251 4 15.9264 30.0477 -189.541 6.098e-14 1 
3252 4 17.2197 28.1758 -190.55 1.3e-13 1 
3253 4 16.7886 28.2111 -188.099 2.84371e-09 1 
3254 4 18.3693 29.8475 -189.109 5.898e-14 1 
3255 4 17.9382 29.8828 -186.658 5.46971e-08 1 
3256 4 19.2316 28.011 -187.667 8.3149e-09 1 
3257 1 18.8005 28.0463 -185.216 3.5001e-08 1 
3258 4 20.3812 29.6827 -186.225 1.16054e-07 1 
3259 1 19.9503 29.718 -183.774 7.27605e-09 1 
3260 1 21.2435 27.8462 -184.783 2.195e-08 1 
3261 1 20.8127 27.8815 -182.332 2.2888e-09 1 
3262 1 22.3933 29.5179 -183.341 7.68045e-09 1 
3263 1 21.9625 29.5532 -180.89 2.02297e-09 1 
3264 1 23.2557 27.6813 -181.899 2.83279e-09 1 
3265 1 22.8249 27.7166 -179.448 2.63258e-09 1 
3266 1 24.4055 29.353 -180.458 1.23629e-09 1 
3267 1 23.9747 29.3883 -178.006 7.47024e-09 1 
3268 1 25.2679 27.5165 -179.016 2.7401e-09 1 
3269 1 24.8371 27.5518 -176.565 3.4517e-09 1 
3270 1 26.4177 29.1882 -177.574 2.53111e-09 1 
3271 1 25.9869 29.2235 -175.123 1.32024e-09 1 
3272 1 27.2802 27.3516 -176.132 3.61916e-09 1 
3273 1 26.8494 27.3869 -173.681 5.66896e-09 1 
3274 1 28.43 29.0233 -174.69 2.5761e-09 1 
3275 1 27.9992 29.0586 -172.239 4.07993e-09 1 
3276 1 29.2924 27.1868 -173.248 2.98573e-09 1 
3277 1 28.8617 27.2221 -170.797 2.7623e-09 1 
3278 1 30.4422 28.8585 -171.806 1.02056e-09 1 
3279 1 30.0115 28.8938 -169.355 1.14834e-09 1 
3280 1 31.3047 27.0219 -170.364 1.03467e-09 1 
3281 1 30.8739 27.0572 -167.913 9.38614e-10 1 
3282 1 32.4545 28.6936 -168.923 1.33521e-09 1 
3305 4 17.6508 28.1405 -193.002 30.976 5 
3306 4 18.8004 29.8122 -191.56 6.1952 5 
3307 4 20.0938 27.9404 -192.569 24.7808 5 
3308 4 19.6627 27.9757 -190.118 6.6643e-27 1 
3309 4 21.2434 29.6121 -191.127 6.1952 5 
3310 4 20.8123 29.6474 -188.676 1.818e-14 1 
3311 4 22.1056 27.7755 -189.685 6e-14 1 
3312 4 21.6745 27.8109 -187.234 2.74204e-08 1 
3313 4 23.2553 29.4473 -188.244 5.01398e-09 1 
3314 1 22.8242 29.4826 -185.792 1.02324e-07 1 
3315 4 24.1175 27.6107 -186.802 5.32077e-08 1 
3316 1 23.6865 27.646 -184.351 1.62379e-08 1 
3317 1 25.2672 29.2824 -185.36 4.34139e-08 1 
3318 1 24.8363 29.3177 -182.909 4.71988e-09 1 
3319 1 26.1295 27.4459 -183.918 8.94338e-09 1 
3320 1 25.6987 27.4812 -181.467 2.72859e-09 1 
3321 1 27.2793 29.1176 -182.476 5.91145e-09 1 
3322 1 26.8485 29.1529 -180.025 1.25787e-09 1 
3323 1 28.1417 27.281 -181.034 3.33386e-09 1 
3324 1 27.7109 27.3163 -178.583 2.48318e-09 1 
3325 1 29.2915 28.9527 -179.592 2.3493e-09 1 
3326 1 28.8608 28.988 -177.141 7.01142e-09 1 
3327 1 30.1539 27.1162 -178.151 3.08927e-09 1 
3328 1 29.7232 27.1515 -175.699 3.23414e-09 1 
3329 1 31.3038 28.7879 -176.709 1.99782e-09 1 
3330 1 30.873 28.8232 -174.258 6.73175e-09 1 
3331 1 32.1662 26.9513 -175.267 4.89683e-09 1 
3332 1 31.7354 26.9866 -172.816 2.76021e-09 1 
3333 1 33.316 28.623 -173.825 5.43991e-09 1 
3334 1 32.8852 28.6583 -171.374 1.2908e-09 1 
3335 1 34.1784 26.7865 -172.383 3.77554e-09 1 
3336 1 33.7477 26.8218 -169.932 2.66007e-09 1 
3337 1 35.3283 28.4582 -170.941 8.30701e-10 1 
3338 1 34.8975 28.4935 -168.49 3.18982e-09 1 
3339 1 36.1907 26.6217 -169.499 3.39824e-09 1 
3341 1 37.3406 28.2934 -168.057 2.75046e-09 1 
3354 4 22.5367 27.7402 -192.137 24.7808 5 
3355 4 23.6864 29.4119 -190.695 6.1952 5 
3356 4 24.9797 27.5401 -191.704 12.3904 5 
3357 4 24.5486 27.5754 -189.253 6e-14 1 
3358 4 26.1293 29.2118 -190.262 5e-14 1 
3359 4 25.6982 29.2471 -187.811 6.71589e-09 1 
3360 4 26.9915 27.3753 -188.82 6e-14 1 
3361 4 26.5604 27.4106 -186.369 8.43981e-08 1 
3362 4 28.1412 29.047 -187.378 1.25398e-08 1 
3363 1 27.7102 29.0823 -184.927 3.18194e-08 1 
3364 4 29.0034 27.2104 -185.937 1.49114e-07 1 
3365 1 28.5725 27.2457 -183.485 1.71863e-09 1 
3366 1 30.1532 28.8822 -184.495 1.5271e-08 1 
3367 1 29.7223 28.9174 -182.044 5.75774e-09 1 
3368 1 31.0155 27.0456 -183.053 3.43973e-09 1 
3369 1 30.5847 27.0809 -180.602 1.34082e-09 1 
3370 1 32.1653 28.7173 -181.611 8.42632e-09 1 
3371 1 31.7345 28.7526 -179.16 1.13507e-09 1 
3372 1 33.0277 26.8808 -180.169 2.36717e-09 1 
3373 1 32.597 26.916 -177.718 3.85726e-09 1 
3374 1 34.1776 28.5525 -178.727 2.1839e-09 1 
3375 1 33.7468 28.5877 -176.276 1.07576e-09 1 
3376 1 35.04 26.7159 -177.285 1.33932e-09 1 
3377 1 34.6092 26.7512 -174.834 2.76672e-09 1 
3378 1 36.1898 28.3876 -175.844 1.82352e-09 1 
3379 1 35.759 28.4229 -173.392 6.25455e-09 1 
3380 1 37.0522 26.5511 -174.402 3.45148e-09 1 
3381 1 36.6214 26.5864 -171.951 2.20137e-09 1 
3382 1 38.202 28.2228 -172.96 3.10581e-09 1 
3383 1 37.7713 28.2581 -170.509 2.23575e-09 1 
3384 1 39.0645 26.3862 -171.518 1.59809e-09 1 
3385 1 38.6337 26.4215 -169.067 1.27926e-09 1 
3386 1 40.2143 28.0579 -170.076 6.86513e-10 1 
3388 1 41.0767 26.2214 -168.634 3.35928e-09 1 
3394 4 26.5604 29.1765 -192.713 30.976 5 
3395 4 27.4227 27.3399 -191.271 6.1952 5 
3396 4 29.0034 28.9763 -192.281 24.7808 5 
3397 4 28.5723 29.0117 -189.83 5e-14 1 
3398 4 29.8656 27.1398 -190.839 6.1952 5 
3399 4 29.4345 27.1751 -188.388 9.99999e-15 1 
3400 4 31.0152 28.8115 -189.397 1.96521e-26 1 
3401 4 30.5841 28.8468 -186.946 3.4127e-08 1 
3402 4 31.8775 26.975 -187.955 4.73052e-09 1 
3403 1 31.4464 27.0103 -185.504 5.05548e-08 1 
3404 4 33.0271 28.6467 -186.513 7.0244e-08 1 
3405 1 32.5962 28.682 -184.062 9.69767e-09 1 
3406 1 33.8894 26.8102 -185.071 2.86349e-08 1 
3407 1 33.4585 26.8455 -182.62 4.9636e-09 1 
3408 1 35.0392 28.4819 -183.63 2.35052e-09 1 
3409 1 34.6083 28.5172 -181.178 3.55657e-09 1 
3410 1 35.9016 26.6453 -182.188 3.10531e-09 1 
3411 1 35.4707 26.6806 -179.737 4.31249e-09 1 
3412 1 37.0514 28.317 -180.746 3.16923e-09 1 
3413 1 36.6206 28.3523 -178.295 1.2101e-09 1 
3414 1 37.9137 26.4805 -179.304 9.91201e-09 1 
3415 1 37.483 26.5158 -176.853 2.50512e-09 1 
3416 1 39.0636 28.1522 -177.862 2.74892e-09 1 
3417 1 38.6328 28.1875 -175.411 1.26838e-09 1 
3418 1 39.926 26.3156 -176.42 3.8391e-09 1 
3419 1 39.4952 26.3509 -173.969 2.0987e-09 1 
3420 1 41.0758 27.9873 -174.978 2.24364e-09 1 
3421 1 40.6451 28.0226 -172.527 2.28729e-09 1 
3422 1 41.9383 26.1508 -173.537 2.03254e-09 1 
3423 1 41.5075 26.1861 -171.085 1.8515e-09 1 
3424 1 43.0881 27.8225 -172.095 1.62776e-09 1 
3425 1 42.6573 27.8578 -169.644 3.52996e-09 1 
3426 4 31.4463 28.7762 -191.848 18.5856 5 
3427 4 32.7397 26.9044 -192.857 30.976 5 
3428 4 32.3086 26.9397 -190.406 8e-14 1 
3429 4 33.8893 28.5761 -191.416 6.1952 5 
3430 4 33.4582 28.6114 -188.964 1.2e-13 1 
3431 4 34.7515 26.7395 -189.974 8e-14 1 
3432 4 34.3204 26.7749 -187.523 1.11414e-08 1 
3433 4 35.9012 28.4113 -188.532 3e-14 1 
3434 4 35.47 28.4466 -186.081 1.32406e-07 1 
3435 4 36.7634 26.5747 -187.09 2.65039e-08 1 
3436 1 36.3324 26.61 -184.639 1.59211e-08 1 
3437 1 37.9131 28.2464 -185.648 5.98286e-08 1 
3438 1 37.4822 28.2817 -183.197 7.46437e-09 1 
3439 1 38.7754 26.4099 -184.206 7.43125e-09 1 
3440 1 38.3446 26.4452 -181.755 2.45417e-09 1 
3441 1 39.9252 28.0816 -182.764 4.51648e-09 1 
3442 1 39.4944 28.1169 -180.313 3.803e-09 1 
3443 1 40.7876 26.245 -181.323 3.09772e-09 1 
3444 1 40.3568 26.2804 -178.871 2.76268e-09 1 
3445 1 41.9374 27.9168 -179.881 5.19097e-09 1 
3446 1 41.5066 27.9521 -177.43 3.60152e-09 1 
3447 1 42.7998 26.0802 -178.439 2.54516e-09 1 
3448 1 42.369 26.1155 -175.988 2.71199e-09 1 
3449 4 35.1826 26.7042 -192.425 24.7808 5 
3450 4 36.3323 28.3759 -190.983 6.1952 5 
3451 4 37.6256 26.5041 -191.992 18.5856 5 
3452 4 37.1945 26.5394 -189.541 3e-14 1 
3453 4 38.7752 28.1758 -190.55 6e-14 1 
3454 4 38.3441 28.2111 -188.099 2.85713e-09 1 
3455 4 39.6374 26.3393 -189.109 8e-14 1 
3456 4 39.2063 26.3746 -186.658 5.76113e-08 1 
3457 4 40.7871 28.011 -187.667 8.30694e-09 1 
3458 1 40.356 28.0463 -185.216 3.50155e-08 1 
3459 4 41.6493 26.1745 -186.225 1.12821e-07 1 
3460 1 41.2184 26.2098 -183.774 7.81526e-09 1 
3461 1 42.799 27.8462 -184.783 2.19605e-08 1 
3462 1 42.3682 27.8815 -182.332 2.28986e-09 1 
3463 4 39.2063 28.1405 -193.002 30.976 5 
3464 4 40.0686 26.304 -191.56 6.1952 5 
3465 4 41.6493 27.9404 -192.569 24.7808 5 
3466 4 41.2182 27.9757 -190.118 5.6129e-14 1 
3467 4 42.5115 26.1038 -191.127 6.1952 5 
3468 4 42.0804 26.1391 -188.676 1.25916e-13 1 
5598 1 43.9505 25.9859 -170.653 2.47336e-09 1 
5599 1 43.5198 26.0212 -168.202 2.04327e-09 1 
5600 1 45.1004 27.6576 -169.211 2.36496e-09 1 
5602 1 2.85179 25.8211 -167.769 4.54438e-09 1 
5684 1 43.9496 27.7519 -176.997 3.32596e-09 1 
5685 1 43.5189 27.7872 -174.546 4.44644e-09 1 
5686 1 44.812 25.9154 -175.555 1.28388e-09 1 
5687 1 44.3813 25.9506 -173.104 5.35071e-10 1 
5688 1 2.85086 27.587 -174.113 3.60062e-09 1 
5689 1 2.4201 27.6223 -171.662 1.99871e-09 1 
5690 1 3.7133 25.7505 -172.671 3.99516e-09 1 
5691 1 3.28253 25.7858 -170.22 3.28743e-09 1 
5692 1 4.86313 27.4222 -171.23 2.54706e-09 1 
5693 1 4.43236 27.4575 -168.778 4.04626e-09 1 
5694 1 5.72557 25.5857 -169.788 3.03835e-09 1 
5696 1 6.87539 27.2574 -168.346 2.16725e-09 1 
5770 1 43.6614 26.0096 -183.341 5.68013e-09 1 
5771 1 43.2306 26.0449 -180.89 4.93295e-09 1 
5772 1 44.8112 27.6813 -181.899 2.8307e-09 1 
5773 1 44.3804 27.7166 -179.448 2.63202e-09 1 
5774 1 2.56257 25.8448 -180.458 3.2796e-09 1 
5775 1 2.13178 25.8801 -178.006 5.15615e-09 1 
5776 1 3.7124 27.5165 -179.016 2.74003e-09 1 
5777 1 3.28161 27.5518 -176.565 3.45176e-09 1 
5778 1 4.57482 25.6799 -177.574 2.41794e-09 1 
5779 1 4.14404 25.7152 -175.123 2.80355e-09 1 
5780 1 5.72464 27.3516 -176.132 3.61906e-09 1 
5781 1 5.29387 27.3869 -173.681 5.66896e-09 1 
5782 1 6.58706 25.515 -174.69 8.14947e-09 1 
5783 1 6.15632 25.5504 -172.239 7.05103e-09 1 
5784 1 7.73688 27.1868 -173.248 2.98569e-09 1 
5785 1 7.30614 27.2221 -170.797 2.7623e-09 1 
5786 1 8.59933 25.3502 -171.806 4.50472e-09 1 
5787 1 8.16859 25.3855 -169.355 2.23441e-09 1 
5788 1 9.74916 27.0219 -170.364 1.03467e-09 1 
5789 1 9.31842 27.0572 -167.913 9.38624e-10 1 
5790 1 10.6116 25.1854 -168.923 1.74109e-09 1 
5856 4 43.6611 27.7755 -189.685 8.9045e-14 1 
5857 4 43.23 27.8109 -187.234 2.73249e-08 1 
5858 4 44.5234 25.939 -188.244 4.55155e-09 1 
5859 1 44.0923 25.9743 -185.792 7.74479e-08 1 
5860 4 2.56196 27.6107 -186.802 5.32897e-08 1 
5861 1 45.242 27.646 -184.351 1.62185e-08 1 
5862 1 3.42427 25.7742 -185.36 3.67393e-08 1 
5863 1 2.99339 25.8095 -182.909 5.7483e-09 1 
5864 1 4.57402 27.4459 -183.918 8.94778e-09 1 
5865 1 4.1432 27.4812 -181.467 2.72815e-09 1 
5866 1 5.4364 25.6093 -182.476 3.74202e-09 1 
5867 1 5.0056 25.6446 -180.025 4.94026e-09 1 
5868 1 6.58621 27.281 -181.034 3.33345e-09 1 
5869 1 6.15542 27.3163 -178.583 2.48292e-09 1 
5870 1 7.44862 25.4445 -179.592 3.07873e-09 1 
5871 1 7.01783 25.4798 -177.141 1.73227e-09 1 
5872 1 8.59843 27.1162 -178.151 3.08935e-09 1 
5873 1 8.16765 27.1515 -175.699 3.23415e-09 1 
5874 1 9.46085 25.2796 -176.709 1.95493e-09 1 
5875 1 9.03006 25.3149 -174.258 8.19238e-09 1 
5876 1 10.6107 26.9513 -175.267 4.89668e-09 1 
5877 1 10.1799 26.9866 -172.816 2.76028e-09 1 
5878 1 11.4731 25.1148 -173.825 3.11064e-09 1 
5879 1 11.0423 25.1501 -171.374 1.20984e-09 1 
5880 1 12.6229 26.7865 -172.383 3.77556e-09 1 
5881 1 12.1922 26.8218 -169.932 2.66011e-09 1 
5882 1 13.4853 24.95 -170.941 6.68289e-09 1 
5883 1 13.0546 24.9853 -168.49 2.70172e-09 1 
5884 1 14.6352 26.6217 -169.499 3.39826e-09 1 
5886 1 15.4976 24.7851 -168.058 2.56866e-09 1 
5942 4 44.0922 27.7402 -192.137 24.7808 5 
5943 4 44.9545 25.9037 -190.695 6.1952 5 
5944 4 3.42418 27.5401 -191.704 18.5856 5 
5945 4 2.99307 27.5754 -189.253 2e-14 1 
5946 4 4.2864 25.7036 -190.262 9e-14 1 
5947 4 3.85529 25.7389 -187.811 7.40939e-09 1 
5948 4 5.43603 27.3753 -188.82 7e-14 1 
5949 4 5.00492 27.4106 -186.369 8.43689e-08 1 
5950 4 6.29825 25.5387 -187.378 1.19832e-08 1 
5951 1 5.86725 25.574 -184.927 3.19009e-08 1 
5952 4 7.44788 27.2104 -185.937 1.4902e-07 1 
5953 1 7.01703 27.2457 -183.485 1.72054e-09 1 
5954 1 8.31025 25.3739 -184.495 1.73981e-08 1 
5955 1 7.87942 25.4092 -182.044 3.21363e-09 1 
5956 1 9.46004 27.0456 -183.053 3.43944e-09 1 
5957 1 9.02922 27.0809 -180.602 1.34115e-09 1 
5958 1 10.3224 25.2091 -181.611 4.66547e-09 1 
5959 1 9.89163 25.2443 -179.16 3.97874e-09 1 
5960 1 11.4722 26.8808 -180.169 2.36669e-09 1 
5961 1 11.0414 26.916 -177.718 3.8567e-09 1 
5962 1 12.3346 25.0442 -178.727 8.55162e-10 1 
5963 1 11.9039 25.0795 -176.276 2.06661e-09 1 
5964 1 13.4844 26.7159 -177.285 1.33929e-09 1 
5965 1 13.0537 26.7512 -174.834 2.76664e-09 1 
5966 1 14.3469 24.8793 -175.844 2.15005e-09 1 
5967 1 13.9161 24.9146 -173.392 3.21637e-09 1 
5968 1 15.4967 26.5511 -174.402 3.45147e-09 1 
5969 1 15.0659 26.5864 -171.951 2.20135e-09 1 
5970 1 16.3591 24.7145 -172.96 1.29508e-09 1 
5971 1 15.9284 24.7498 -170.509 1.78117e-09 1 
5972 1 17.509 26.3862 -171.518 1.59813e-09 1 
5973 1 17.0782 26.4215 -169.067 1.27926e-09 1 
5974 1 18.3714 24.5497 -170.076 2.77242e-09 1 
5976 1 19.5212 26.2214 -168.634 3.3593e-09 1 
6024 4 4.71751 25.6682 -192.713 30.976 5 
6025 4 5.86714 27.3399 -191.271 6.1952 5 
6026 4 7.16047 25.4681 -192.281 24.7808 5 
6027 4 6.72936 25.5034 -189.83 1e-13 1 
6028 4 8.3101 27.1398 -190.839 6.1952 5 
6029 4 7.87899 27.1751 -188.388 6e-14 1 
6030 4 9.17232 25.3033 -189.397 1.1e-13 1 
6031 4 8.74121 25.3386 -186.946 3.34972e-08 1 
6032 4 10.3219 26.975 -187.955 4.73938e-09 1 
6033 1 9.8909 27.0103 -185.504 5.05061e-08 1 
6034 4 11.1842 25.1385 -186.513 7.06898e-08 1 
6035 1 10.7533 25.1738 -184.062 9.0485e-09 1 
6036 1 12.3339 26.8102 -185.071 2.86296e-08 1 
6037 1 11.903 26.8455 -182.62 4.96044e-09 1 
6038 1 13.1963 24.9736 -183.63 2.05111e-09 1 
6039 1 12.7654 25.0089 -181.178 4.76868e-09 1 
6040 1 14.346 26.6453 -182.188 3.10541e-09 1 
6041 1 13.9152 26.6806 -179.737 4.3125e-09 1 
6042 1 15.2084 24.8088 -180.746 2.46141e-09 1 
6043 1 14.7776 24.8441 -178.295 1.40605e-09 1 
6044 1 16.3582 26.4805 -179.304 9.91252e-09 1 
6045 1 15.9275 26.5158 -176.853 2.50544e-09 1 
6046 1 17.2206 24.6439 -177.862 3.57598e-09 1 
6047 1 16.7899 24.6792 -175.411 1.44908e-09 1 
6048 1 18.3705 26.3156 -176.42 3.83909e-09 1 
6049 1 17.9397 26.3509 -173.969 2.0987e-09 1 
6050 1 19.2329 24.4791 -174.978 2.48852e-09 1 
6051 1 18.8021 24.5144 -172.527 1.18914e-09 1 
6052 1 20.3827 26.1508 -173.537 2.03259e-09 1 
6053 1 19.952 26.1861 -171.085 1.8515e-09 1 
6054 1 21.2452 24.3142 -172.095 8.89771e-10 1 
6055 1 20.8144 24.3495 -169.644 5.28137e-09 1 
6056 1 22.395 25.9859 -170.653 2.47339e-09 1 
6057 1 21.9643 26.0212 -168.202 2.04326e-09 1 
6058 1 23.2575 24.1494 -169.211 4.60011e-09 1 
6060 1 24.4073 25.8211 -167.769 4.54439e-09 1 
6099 4 9.60343 25.268 -191.848 18.5856 5 
6100 4 11.1842 26.9044 -192.857 30.976 5 
6101 4 10.7531 26.9397 -190.406 9e-14 1 
6102 4 12.0464 25.0678 -191.416 6.1952 5 
6103 4 11.6153 25.1031 -188.964 1e-13 1 
6104 4 13.196 26.7395 -189.974 4e-14 1 
6105 4 12.7649 26.7749 -187.523 1.11306e-08 1 
6106 4 14.0582 24.903 -188.532 5e-14 1 
6107 4 13.6271 24.9383 -186.081 1.28869e-07 1 
6108 4 15.2079 26.5747 -187.09 2.64811e-08 1 
6109 1 14.7769 26.61 -184.639 1.59305e-08 1 
6110 1 16.0701 24.7382 -185.648 5.56519e-08 1 
6111 1 15.6393 24.7735 -183.197 2.37771e-09 1 
6112 1 17.2199 26.4099 -184.206 7.42291e-09 1 
6113 1 16.7891 26.4452 -181.755 2.45459e-09 1 
6114 1 18.0823 24.5733 -182.764 4.40726e-09 1 
6115 1 17.6514 24.6086 -180.313 2.30313e-09 1 
6116 1 19.2321 26.245 -181.323 3.09807e-09 1 
6117 1 18.8013 26.2804 -178.871 2.76252e-09 1 
6118 1 20.0945 24.4085 -179.881 2.21465e-09 1 
6119 1 19.6637 24.4438 -177.43 3.69222e-09 1 
6120 1 21.2443 26.0802 -178.439 2.54517e-09 1 
6121 1 20.8135 26.1155 -175.988 2.71208e-09 1 
6122 1 22.1067 24.2437 -176.997 2.82485e-09 1 
6123 1 21.6759 24.279 -174.546 1.12224e-09 1 
6124 1 23.2565 25.9154 -175.555 1.2839e-09 1 
6125 1 22.8258 25.9506 -173.104 5.35101e-10 1 
6126 1 24.119 24.0788 -174.113 1.24137e-09 1 
6127 1 23.6882 24.1141 -171.662 8.14984e-10 1 
6128 1 25.2688 25.7505 -172.671 3.99511e-09 1 
6129 1 24.838 25.7858 -170.22 3.28741e-09 1 
6130 1 26.1312 23.914 -171.23 3.39063e-09 1 
6131 1 25.7005 23.9493 -168.778 3.49911e-09 1 
6132 1 27.2811 25.5857 -169.788 3.03836e-09 1 
6134 1 28.1435 23.7491 -168.346 3.21577e-09 1 
6165 4 13.6271 26.7042 -192.425 24.7808 5 
6166 4 14.4893 24.8677 -190.983 6.1952 5 
6167 4 16.0701 26.5041 -191.992 18.5856 5 
6168 4 15.639 26.5394 -189.541 9e-14 1 
6169 4 16.9323 24.6676 -190.55 1.6e-13 1 
6170 4 16.5012 24.7029 -188.099 2.67829e-09 1 
6171 4 18.0819 26.3393 -189.109 8e-14 1 
6172 4 17.6508 26.3746 -186.658 5.76919e-08 1 
6173 4 18.9442 24.5027 -187.667 7.973e-09 1 
6174 1 18.5131 24.5381 -185.216 3.52785e-08 1 
6175 4 20.0938 26.1745 -186.225 1.12967e-07 1 
6176 1 19.6629 26.2098 -183.774 7.81251e-09 1 
6177 1 20.9561 24.3379 -184.783 1.48431e-08 1 
6178 1 20.5253 24.3732 -182.332 7.15788e-09 1 
6179 1 22.1059 26.0096 -183.341 5.67915e-09 1 
6180 1 21.6751 26.0449 -180.89 4.93281e-09 1 
6181 1 22.9683 24.1731 -181.899 7.23943e-09 1 
6182 1 22.5375 24.2084 -179.448 6.17842e-09 1 
6183 1 24.1181 25.8448 -180.458 3.27975e-09 1 
6184 1 23.6873 25.8801 -178.006 5.15624e-09 1 
6185 1 24.9805 24.0082 -179.016 1.45394e-09 1 
6186 1 24.5497 24.0435 -176.565 3.41716e-09 1 
6187 1 26.1303 25.6799 -177.574 2.41792e-09 1 
6188 1 25.6996 25.7152 -175.123 2.80352e-09 1 
6189 1 26.9927 23.8433 -176.132 1.76057e-09 1 
6190 1 26.562 23.8786 -173.681 4.84545e-09 1 
6191 1 28.1426 25.515 -174.69 8.14953e-09 1 
6192 1 27.7118 25.5504 -172.239 7.05115e-09 1 
6193 1 29.005 23.6785 -173.248 1.26172e-09 1 
6194 1 28.5743 23.7138 -170.797 1.81544e-09 1 
6195 1 30.1548 25.3502 -171.806 4.5047e-09 1 
6196 1 29.7241 25.3855 -169.355 2.23442e-09 1 
6197 1 31.0173 23.5137 -170.364 1.39024e-09 1 
6198 1 30.5865 23.549 -167.913 3.03211e-09 1 
6199 1 32.1671 25.1854 -168.923 1.74107e-09 1 
6223 4 17.3634 24.6322 -193.002 30.976 5 
6224 4 18.513 26.304 -191.56 6.1952 5 
6225 4 19.8064 24.4321 -192.569 24.7808 5 
6226 4 19.3753 24.4674 -190.118 5e-14 1 
6227 4 20.956 26.1038 -191.127 6.1952 5 
6228 4 20.5249 26.1391 -188.676 3e-14 1 
6229 4 21.8182 24.2673 -189.685 1.1e-13 1 
6230 4 21.3871 24.3026 -187.234 2.82224e-08 1 
6231 4 22.9678 25.939 -188.244 4.54486e-09 1 
6232 1 22.5368 25.9743 -185.792 7.75097e-08 1 
6233 4 23.8301 24.1025 -186.802 5.31104e-08 1 
6234 1 23.3991 24.1378 -184.351 1.60053e-08 1 
6235 1 24.9798 25.7742 -185.36 3.67323e-08 1 
6236 1 24.5489 25.8095 -182.909 5.74807e-09 1 
6237 1 25.8421 23.9376 -183.918 4.87575e-09 1 
6238 1 25.4113 23.9729 -181.467 3.97343e-09 1 
6239 1 26.9919 25.6093 -182.476 3.74087e-09 1 
6240 1 26.5611 25.6446 -180.025 4.94017e-09 1 
6241 1 27.8543 23.7728 -181.034 4.13812e-09 1 
6242 1 27.4235 23.8081 -178.583 1.02035e-09 1 
6243 1 29.0041 25.4445 -179.592 3.07895e-09 1 
6244 1 28.5733 25.4798 -177.141 1.73232e-09 1 
6245 1 29.8665 23.6079 -178.151 2.54444e-09 1 
6246 1 29.4358 23.6432 -175.699 5.56289e-09 1 