ITEM: TIMESTEP
0
ITEM: NUMBER OF ATOMS
85338
ITEM: BOX BOUNDS xy xz yz pp pp ss
0 31.68 0
0 55.6561 0
-250.07 277.916 -0
ITEM: ATOMS id type x y z c_csym c_cna 
1 4 29.92 51.9824 -248.236 6.1952 5 
2 4 29.92 54.4313 -248.681 12.3904 5 
3 4 29.92 54.8766 -246.232 5.9005e-14 1 
4 4 29.92 44.1906 -249.349 24.7808 5 
5 4 29.92 46.6395 -249.794 30.976 5 
6 4 29.92 47.0847 -247.345 5e-14 1 
7 4 29.92 49.5336 -247.791 6.1952 5 
8 4 29.92 49.9788 -245.342 8e-14 1 
9 4 29.92 52.4277 -245.787 7e-14 1 
10 4 29.92 52.8729 -243.338 2.24288e-08 1 
11 4 29.92 55.3218 -243.783 1.59911e-08 1 
12 4 29.92 39.2928 -248.459 6.1952 5 
13 4 29.92 41.7417 -248.904 12.3904 5 
14 4 29.92 42.187 -246.455 1.1e-13 1 
15 4 29.92 44.6358 -246.9 1e-13 1 
16 4 29.92 45.0811 -244.451 3.73992e-09 1 
17 4 29.92 47.5299 -244.897 1.0627e-09 1 
18 1 29.92 47.9752 -242.448 1.43892e-08 1 
19 4 29.92 50.4241 -242.893 3.86148e-08 1 
20 1 29.92 50.8692 -240.444 1.31666e-09 1 
21 1 29.92 53.3181 -240.889 4.27263e-09 1 
22 1 29.92 53.7632 -238.44 2.28896e-09 1 
23 4 29.92 31.501 -249.572 24.7808 5 
24 4 29.92 33.9499 -250.017 30.976 5 
25 4 29.92 34.3951 -247.568 2e-14 1 
26 4 29.92 36.844 -248.013 6.1952 5 
27 4 29.92 37.2892 -245.564 9e-14 1 
28 4 29.92 39.7381 -246.01 1e-13 1 
29 4 29.92 40.1833 -243.561 1.61941e-08 1 
30 4 29.92 42.6322 -244.006 6.39161e-09 1 
31 1 29.92 43.0774 -241.557 6.91767e-09 1 
32 1 29.92 45.5263 -242.002 6.42686e-09 1 
33 1 29.92 45.9714 -239.553 2.18642e-09 1 
34 1 29.92 48.4203 -239.999 2.84072e-09 1 
35 1 29.92 48.8654 -237.55 3.14993e-09 1 
36 1 29.92 51.3143 -237.995 5.22658e-09 1 
37 1 29.92 51.7593 -235.546 3.92837e-09 1 
38 1 29.92 54.2082 -235.991 3.37843e-09 1 
39 1 29.92 54.6533 -233.543 3.708e-09 1 
40 4 29.92 26.6033 -248.681 12.3904 5 
41 4 29.92 29.0521 -249.126 24.7808 5 
42 4 29.92 29.4974 -246.678 5e-14 1 
43 4 29.92 31.9462 -247.123 4.00001e-14 1 
44 4 29.92 32.3915 -244.674 1.07366e-09 1 
45 4 29.92 34.8404 -245.119 1.12301e-10 1 
46 1 29.92 35.2856 -242.67 3.57559e-08 1 
47 4 29.92 37.7345 -243.116 3.16744e-08 1 
48 1 29.92 38.1796 -240.667 2.0249e-09 1 
49 1 29.92 40.6285 -241.112 2.49089e-09 1 
50 1 29.92 41.0736 -238.663 5.35189e-09 1 
51 1 29.92 43.5225 -239.108 3.09051e-09 1 
52 1 29.92 43.9676 -236.659 2.27975e-09 1 
53 1 29.92 46.4165 -237.105 1.75925e-09 1 
54 1 29.92 46.8615 -234.656 1.5355e-09 1 
55 1 29.92 49.3104 -235.101 1.12387e-09 1 
56 1 29.92 49.7555 -232.652 8.66738e-10 1 
57 1 29.92 52.2044 -233.097 2.28077e-09 1 
58 1 29.92 52.6494 -230.648 9.5917e-10 1 
59 1 29.92 55.0983 -231.094 2.77514e-09 1 
60 4 29.92 18.8114 -249.794 30.976 5 
61 4 29.92 21.7055 -247.791 6.1952 5 
62 4 29.92 24.1544 -248.236 6.1952 5 
63 4 29.92 24.5996 -245.787 6e-14 1 
64 4 29.92 27.0485 -246.232 5e-14 1 
65 4 29.92 27.4938 -243.783 1.60227e-08 1 
66 4 29.92 29.9426 -244.229 1.0486e-08 1 
67 1 29.92 30.3878 -241.78 9.17141e-09 1 
68 1 29.92 32.8367 -242.225 1.95825e-08 1 
69 1 29.92 33.2818 -239.776 2.14036e-09 1 
70 1 29.92 35.7307 -240.221 2.10219e-09 1 
71 1 29.92 36.1758 -237.772 3.81132e-09 1 
72 1 29.92 38.6247 -238.218 3.79994e-09 1 
73 1 29.92 39.0698 -235.769 2.41511e-09 1 
74 1 29.92 41.5187 -236.214 1.45968e-09 1 
75 1 29.92 41.9637 -233.765 1.26377e-09 1 
76 1 29.92 44.4126 -234.21 1.14384e-09 1 
77 1 29.92 44.8577 -231.761 1.20928e-09 1 
78 1 29.92 47.3066 -232.207 1.69071e-09 1 
79 1 29.92 47.7516 -229.758 7.71744e-10 1 
80 1 29.92 50.2005 -230.203 2.07511e-09 1 
81 1 29.92 50.6456 -227.754 1.76055e-09 1 
82 1 29.92 53.0945 -228.199 1.88225e-09 1 
83 1 29.92 53.5396 -225.751 3.1161e-09 1 
84 4 29.92 13.9137 -248.904 12.3904 5 
85 4 29.92 16.3625 -249.349 24.7808 5 
86 4 29.92 16.8078 -246.9 1.1e-13 1 
87 4 29.92 19.2567 -247.345 9e-14 1 
88 4 29.92 19.7019 -244.897 1.01983e-09 1 
89 4 29.92 22.1508 -245.342 4e-14 1 
90 4 29.92 22.596 -242.893 3.86066e-08 1 
91 4 29.92 25.0449 -243.338 2.25137e-08 1 
92 1 29.92 25.49 -240.889 4.27722e-09 1 
93 1 29.92 27.9389 -241.335 1.10856e-08 1 
94 1 29.92 28.384 -238.886 2.44397e-09 1 
95 1 29.92 30.8329 -239.331 2.80906e-09 1 
96 1 29.92 31.278 -236.882 1.76883e-09 1 
97 1 29.92 33.7269 -237.327 2.38144e-09 1 
98 1 29.92 34.172 -234.878 1.57951e-09 1 
99 1 29.92 36.6209 -235.324 1.52476e-09 1 
100 1 29.92 37.0659 -232.875 1.56498e-09 1 
101 1 29.92 39.5148 -233.32 1.11606e-09 1 
102 1 29.92 39.9599 -230.871 5.45869e-10 1 
103 1 29.92 42.4088 -231.316 3.36674e-09 1 
104 1 29.92 42.8538 -228.867 3.95826e-09 1 
105 1 29.92 45.3027 -229.313 4.37002e-09 1 
106 1 29.92 45.7478 -226.864 2.08011e-09 1 
107 1 29.92 48.1967 -227.309 1.68933e-09 1 
108 1 29.92 48.6418 -224.86 5.68386e-09 1 
109 1 29.92 51.0907 -225.305 7.49263e-10 1 
110 1 29.92 51.5357 -222.856 7.88604e-10 1 
111 1 29.92 53.9846 -223.302 8.00012e-09 1 
112 1 29.92 54.4297 -220.853 2.88413e-09 1 
113 4 29.92 6.12182 -250.017 30.976 5 
114 4 29.92 9.01594 -248.013 6.1952 5 
115 4 29.92 11.4648 -248.459 6.1952 5 
116 4 29.92 11.9101 -246.01 9e-14 1 
117 4 29.92 14.3589 -246.455 1.1e-13 1 
118 4 29.92 14.8042 -244.006 6.40844e-09 1 
119 4 29.92 17.253 -244.451 3.76925e-09 1 
120 1 29.92 17.6982 -242.002 6.54531e-09 1 
121 1 29.92 20.1471 -242.448 1.47545e-08 1 
122 1 29.92 20.5922 -239.999 2.79391e-09 1 
123 1 29.92 23.0411 -240.444 1.28202e-09 1 
124 1 29.92 23.4862 -237.995 5.31282e-09 1 
125 1 29.92 25.9351 -238.44 2.32982e-09 1 
126 1 29.92 26.3802 -235.991 3.4146e-09 1 
127 1 29.92 28.8291 -236.437 1.20066e-09 1 
128 1 29.92 29.2741 -233.988 1.958e-09 1 
129 1 29.92 31.723 -234.433 1.82336e-09 1 
130 1 29.92 32.1681 -231.984 9.69007e-10 1 
131 1 29.92 34.617 -232.429 2.49492e-09 1 
132 1 29.92 35.062 -229.981 2.3137e-09 1 
133 1 29.92 37.511 -230.426 2.83239e-09 1 
134 1 29.92 37.956 -227.977 9.9381e-10 1 
135 1 29.92 40.4049 -228.422 1.04261e-09 1 
136 1 29.92 40.85 -225.973 1.55964e-09 1 
137 1 29.92 43.2989 -226.418 5.08306e-09 1 
138 1 29.92 43.744 -223.969 2.99233e-09 1 
139 1 29.92 46.1929 -224.415 1.04142e-09 1 
140 1 29.92 46.6379 -221.966 2.73512e-10 1 
141 1 29.92 49.0868 -222.411 3.41655e-09 1 
142 1 29.92 49.5319 -219.962 2.58146e-09 1 
143 1 29.92 51.9808 -220.407 4.29693e-09 1 
144 1 29.92 52.4259 -217.959 2.53186e-09 1 
145 1 29.92 54.8748 -218.404 3.5533e-09 1 
147 4 29.92 1.22408 -249.126 24.7808 5 
148 4 29.92 3.67295 -249.572 24.7808 5 
149 4 29.92 4.1182 -247.123 5e-14 1 
150 4 29.92 6.56707 -247.568 6e-14 1 
151 4 29.92 7.01232 -245.119 1.14409e-10 1 
152 4 29.92 9.46118 -245.564 5e-14 1 
153 4 29.92 9.90643 -243.116 3.1828e-08 1 
154 4 29.92 12.3553 -243.561 1.61309e-08 1 
155 1 29.92 12.8005 -241.112 2.64434e-09 1 
156 1 29.92 15.2493 -241.557 6.62187e-09 1 
157 1 29.92 15.6945 -239.108 3.22207e-09 1 
158 1 29.92 18.1434 -239.553 2.12538e-09 1 
159 1 29.92 18.5884 -237.105 1.79203e-09 1 
160 1 29.92 21.0373 -237.55 3.15076e-09 1 
161 1 29.92 21.4824 -235.101 1.05698e-09 1 
162 1 29.92 23.9313 -235.546 4.02153e-09 1 
163 1 29.92 24.3763 -233.097 2.24293e-09 1 
164 1 29.92 26.8252 -233.543 3.63699e-09 1 
165 1 29.92 27.2703 -231.094 2.71391e-09 1 
166 1 29.92 29.7192 -231.539 1.4088e-09 1 
167 1 29.92 30.1642 -229.09 2.4187e-09 1 
168 1 29.92 32.6131 -229.535 3.25063e-10 1 
169 1 29.92 33.0582 -227.086 1.50211e-09 1 
170 1 29.92 35.5071 -227.532 3.84828e-09 1 
171 1 29.92 35.9522 -225.083 4.03192e-09 1 
172 1 29.92 38.4011 -225.528 1.24773e-09 1 
173 1 29.92 38.8461 -223.079 1.47739e-09 1 
174 1 29.92 41.2951 -223.524 3.24161e-09 1 
175 1 29.92 41.7401 -221.075 1.33809e-09 1 
176 1 29.92 44.189 -221.521 1.8578e-09 1 
177 1 29.92 44.6341 -219.072 9.1912e-10 1 
178 1 29.92 47.083 -219.517 1.83307e-09 1 
180 1 29.92 49.977 -217.513 2.31487e-09 1 
184 4 29.92 1.66933 -246.678 7.2761e-14 1 
185 4 29.92 2.11458 -244.229 1.03148e-08 1 
186 4 29.92 4.56345 -244.674 1.05098e-09 1 
187 1 29.92 5.00867 -242.225 1.9254e-08 1 
188 1 29.92 7.45756 -242.67 3.57916e-08 1 
189 1 29.92 7.90267 -240.221 2.06426e-09 1 
190 1 29.92 10.3516 -240.667 1.88515e-09 1 
191 1 29.92 10.7967 -238.218 3.87428e-09 1 
192 1 29.92 13.2456 -238.663 5.20434e-09 1 
193 1 29.92 13.6906 -236.214 1.44822e-09 1 
194 1 29.92 16.1395 -236.659 2.20935e-09 1 
195 1 29.92 16.5846 -234.21 1.16822e-09 1 
196 1 29.92 19.0335 -234.656 1.50876e-09 1 
197 1 29.92 19.4785 -232.207 1.76242e-09 1 
198 1 29.92 21.9274 -232.652 8.63629e-10 1 
199 1 29.92 22.3725 -230.203 2.21315e-09 1 
200 1 29.92 24.8214 -230.648 9.99863e-10 1 
201 1 29.92 25.2664 -228.199 1.93767e-09 1 
202 1 29.92 27.7153 -228.645 2.73627e-09 1 
203 1 29.92 28.1604 -226.196 3.99797e-10 1 
204 1 29.92 30.6093 -226.641 9.12163e-10 1 
205 1 29.92 31.0544 -224.192 5.8409e-10 1 
206 1 29.92 33.5033 -224.637 1.91001e-09 1 
207 1 29.92 33.9483 -222.188 3.48464e-10 1 
208 1 29.92 36.3972 -222.634 2.74085e-09 1 
209 1 29.92 36.8423 -220.185 2.48507e-09 1 
210 1 29.92 39.2912 -220.63 3.58064e-09 1 
211 1 29.92 39.7363 -218.181 4.26489e-09 1 
212 1 29.92 42.1852 -218.626 1.49265e-09 1 
222 1 29.92 0.110881 -241.335 1.12818e-08 1 
223 1 29.92 2.55976 -241.78 9.27381e-09 1 
224 1 29.92 3.00487 -239.331 2.76134e-09 1 
225 1 29.92 5.45378 -239.776 2.13224e-09 1 
226 1 29.92 5.89885 -237.327 2.46535e-09 1 
227 1 29.92 8.34777 -237.772 3.98932e-09 1 
228 1 29.92 8.79282 -235.324 1.43574e-09 1 
229 1 29.92 11.2417 -235.769 2.21613e-09 1 
230 1 29.92 11.6868 -233.32 1.12717e-09 1 
231 1 29.92 14.1357 -233.765 1.27132e-09 1 
232 1 29.92 14.5807 -231.316 3.31892e-09 1 
233 1 29.92 17.0296 -231.761 1.22266e-09 1 
234 1 29.92 17.4747 -229.313 4.46301e-09 1 
235 1 29.92 19.9236 -229.758 7.67434e-10 1 
236 1 29.92 20.3686 -227.309 1.6363e-09 1 
237 1 29.92 22.8175 -227.754 1.65561e-09 1 
238 1 29.92 23.2626 -225.305 7.09762e-10 1 
239 1 29.92 25.7115 -225.751 3.19567e-09 1 
240 1 29.92 26.1566 -223.302 7.96814e-09 1 
241 1 29.92 28.6055 -223.747 7.61461e-10 1 
242 1 29.92 29.0505 -221.298 1.82202e-09 1 
243 1 29.92 31.4994 -221.743 1.3644e-09 1 
244 1 29.92 31.9445 -219.294 2.24908e-09 1 
245 1 29.92 34.3934 -219.74 3.93472e-10 1 
246 1 29.92 34.8385 -217.291 4.26619e-10 1 
247 1 29.92 37.2874 -217.736 9.79229e-10 1 
261 1 29.92 0.555975 -238.886 2.36833e-09 1 
262 1 29.92 1.00103 -236.437 1.15758e-09 1 
263 1 29.92 3.44994 -236.882 1.80566e-09 1 
264 1 29.92 3.89499 -234.433 1.78967e-09 1 
265 1 29.92 6.34391 -234.878 1.60771e-09 1 
266 1 29.92 6.78894 -232.429 2.5095e-09 1 
267 1 29.92 9.23787 -232.875 1.5705e-09 1 
268 1 29.92 9.68292 -230.426 2.75791e-09 1 
269 1 29.92 12.1318 -230.871 5.71638e-10 1 
270 1 29.92 12.5769 -228.422 1.04133e-09 1 
271 1 29.92 15.0258 -228.867 4.09472e-09 1 
272 1 29.92 15.4708 -226.418 4.99739e-09 1 
273 1 29.92 17.9197 -226.864 2.12678e-09 1 
274 1 29.92 18.3648 -224.415 9.77799e-10 1 
275 1 29.92 20.8137 -224.86 5.54334e-09 1 
276 1 29.92 21.2588 -222.411 3.47849e-09 1 
277 1 29.92 23.7077 -222.856 7.98317e-10 1 
278 1 29.92 24.1528 -220.407 4.61478e-09 1 
279 1 29.92 26.6017 -220.853 2.89582e-09 1 
280 1 29.92 27.0467 -218.404 3.63711e-09 1 
281 1 29.92 29.4956 -218.849 2.81385e-09 1 
299 1 29.92 1.44607 -233.988 1.91925e-09 1 
300 1 29.92 1.89112 -231.539 1.38234e-09 1 
301 1 29.92 4.34003 -231.984 1.02317e-09 1 
302 1 29.92 4.78509 -229.535 3.2189e-10 1 
303 1 29.92 7.234 -229.981 2.28517e-09 1 
304 1 29.92 7.67905 -227.532 3.80038e-09 1 
305 1 29.92 10.128 -227.977 9.35988e-10 1 
306 1 29.92 10.573 -225.528 1.28513e-09 1 
307 1 29.92 13.0219 -225.973 1.57407e-09 1 
308 1 29.92 13.467 -223.524 3.25766e-09 1 
309 1 29.92 15.9159 -223.969 2.99143e-09 1 
310 1 29.92 16.361 -221.521 2.09945e-09 1 
311 1 29.92 18.8099 -221.966 2.83878e-10 1 
312 1 29.92 19.255 -219.517 1.87896e-09 1 
313 1 29.92 21.7039 -219.962 2.7188e-09 1 
314 1 29.92 22.1489 -217.513 2.36983e-09 1 
315 1 29.92 24.5978 -217.959 2.74579e-09 1 
337 1 29.92 55.5434 -228.645 2.80187e-09 1 
338 1 29.92 2.33618 -229.09 2.29057e-09 1 
339 1 29.92 2.78126 -226.641 9.07886e-10 1 
340 1 29.92 5.23015 -227.086 1.56645e-09 1 
341 1 29.92 5.67521 -224.637 1.99183e-09 1 
342 1 29.92 8.12411 -225.083 4.00838e-09 1 
343 1 29.92 8.56919 -222.634 2.80454e-09 1 
344 1 29.92 11.0181 -223.079 1.3897e-09 1 
345 1 29.92 11.4632 -220.63 3.46809e-09 1 
346 1 29.92 13.9121 -221.075 1.27396e-09 1 
347 1 29.92 14.3571 -218.626 1.49042e-09 1 
348 1 29.92 16.8061 -219.072 9.95218e-10 1 
376 1 29.92 0.332366 -226.196 4.09125e-10 1 
377 1 29.92 0.777439 -223.747 7.29408e-10 1 
378 1 29.92 3.22633 -224.192 5.67402e-10 1 
379 1 29.92 3.67139 -221.743 1.40173e-09 1 
380 1 29.92 6.12029 -222.188 3.50907e-10 1 
381 1 29.92 6.56537 -219.74 3.94744e-10 1 
382 1 29.92 9.01426 -220.185 2.46162e-09 1 
383 1 29.92 9.45935 -217.736 9.84567e-10 1 
384 1 29.92 11.9082 -218.181 4.42127e-09 1 
415 1 29.92 1.22251 -221.298 1.6987e-09 1 
416 1 29.92 1.66758 -218.849 2.85188e-09 1 
417 1 29.92 4.11647 -219.294 2.33332e-09 1 
419 1 29.92 7.01044 -217.291 3.60167e-10 1 
2311 4 28.16 50.5354 -249.238 24.7808 5 
2312 4 28.16 52.9842 -249.683 30.976 5 
2313 4 26.4 51.9824 -248.236 6.1952 5 
2314 4 26.4 54.4313 -248.681 12.3904 5 
2315 4 28.16 53.4295 -247.234 5.0361e-14 1 
2316 4 26.4 54.8766 -246.232 5.9005e-14 1 
2317 4 26.4 44.1906 -249.349 24.7808 5 
2318 4 26.4 46.6395 -249.794 30.976 5 
2319 4 28.16 45.6376 -248.347 6.1952 5 
2320 4 28.16 48.0865 -248.792 12.3904 5 
2321 4 26.4 47.0847 -247.345 5e-14 1 
2322 4 26.4 49.5336 -247.791 6.1952 5 
2323 4 28.16 48.5318 -246.344 9e-14 1 
2324 4 28.16 50.9806 -246.789 8e-14 1 
2325 4 26.4 49.9788 -245.342 8e-14 1 
2326 4 26.4 52.4277 -245.787 7e-14 1 
2327 4 28.16 51.4259 -244.34 3.29676e-09 1 
2328 4 28.16 53.8747 -244.785 1.77662e-09 1 
2329 4 26.4 52.8729 -243.338 2.2401e-08 1 
2330 4 26.4 55.3218 -243.783 1.59375e-08 1 
2331 1 28.16 54.32 -242.336 1.79986e-08 1 
2332 4 28.16 37.8458 -249.46 24.7808 5 
2333 4 28.16 40.2947 -249.906 30.976 5 
2334 4 26.4 39.2928 -248.459 6.1952 5 
2335 4 26.4 41.7417 -248.904 12.3904 5 
2336 4 28.16 40.7399 -247.457 4e-14 1 
2337 4 28.16 43.1888 -247.902 6.1952 5 
2338 4 26.4 42.187 -246.455 1.1e-13 1 
2339 4 26.4 44.6358 -246.9 1e-13 1 
2340 4 28.16 43.634 -245.453 6e-14 1 
2341 4 28.16 46.0829 -245.898 8.99999e-14 1 
2342 4 26.4 45.0811 -244.451 3.75999e-09 1 
2343 4 26.4 47.5299 -244.897 9.99289e-10 1 
2344 4 28.16 46.5281 -243.449 2.07346e-08 1 
2345 4 28.16 48.977 -243.895 7.98076e-09 1 
2346 1 26.4 47.9752 -242.448 1.50724e-08 1 
2347 4 26.4 50.4241 -242.893 3.84932e-08 1 
2348 1 28.16 49.4222 -241.446 5.43573e-09 1 
2349 1 28.16 51.8711 -241.891 8.88177e-09 1 
2350 1 26.4 50.8692 -240.444 1.33356e-09 1 
2351 1 26.4 53.3181 -240.889 4.28953e-09 1 
2352 1 28.16 52.3162 -239.442 2.55852e-09 1 
2353 1 28.16 54.7651 -239.887 1.87058e-09 1 
2354 1 26.4 53.7632 -238.44 2.22366e-09 1 
2355 1 28.16 55.2102 -237.439 3.7262e-09 1 
2356 4 26.4 31.501 -249.572 24.7808 5 
2357 4 26.4 33.9499 -250.017 30.976 5 
2358 4 28.16 32.9481 -248.57 6.1952 5 
2359 4 28.16 35.3969 -249.015 12.3904 5 
2360 4 26.4 34.3951 -247.568 2e-14 1 
2361 4 26.4 36.844 -248.013 6.1952 5 
2362 4 28.16 35.8422 -246.566 9e-14 1 
2363 4 28.16 38.291 -247.011 8e-14 1 
2364 4 26.4 37.2892 -245.564 9e-14 1 
2365 4 26.4 39.7381 -246.01 1e-13 1 
2366 4 28.16 38.7363 -244.563 2.48532e-09 1 
2367 4 28.16 41.1852 -245.008 6.94092e-10 1 
2368 4 26.4 40.1833 -243.561 1.60607e-08 1 
2369 4 26.4 42.6322 -244.006 6.51663e-09 1 
2370 1 28.16 41.6304 -242.559 2.69152e-08 1 
2371 4 28.16 44.0793 -243.004 3.659e-08 1 
2372 1 26.4 43.0774 -241.557 6.08016e-09 1 
2373 1 26.4 45.5263 -242.002 6.69102e-09 1 
2374 1 28.16 44.5244 -240.555 1.47393e-09 1 
2375 1 28.16 46.9733 -241.001 1.78583e-09 1 
2376 1 26.4 45.9714 -239.553 2.1224e-09 1 
2377 1 26.4 48.4203 -239.999 2.92941e-09 1 
2378 1 28.16 47.4184 -238.552 4.81686e-09 1 
2379 1 28.16 49.8673 -238.997 4.55299e-09 1 
2380 1 26.4 48.8654 -237.55 3.30074e-09 1 
2381 1 26.4 51.3143 -237.995 5.58004e-09 1 
2382 1 28.16 50.3124 -236.548 6.35696e-09 1 
2383 1 28.16 52.7613 -236.993 5.79738e-09 1 
2384 1 26.4 51.7593 -235.546 3.85416e-09 1 
2385 1 26.4 54.2082 -235.991 3.61384e-09 1 
2386 1 28.16 53.2063 -234.544 9.20872e-10 1 
2387 1 26.4 54.6533 -233.543 3.61154e-09 1 
2388 4 28.16 25.1562 -249.683 30.976 5 
2389 4 26.4 26.6033 -248.681 12.3904 5 
2390 4 26.4 29.0521 -249.126 24.7808 5 
2391 4 28.16 28.0503 -247.679 6.1952 5 
2392 4 28.16 30.4992 -248.125 6.1952 5 
2393 4 26.4 29.4974 -246.678 5e-14 1 
2394 4 26.4 31.9462 -247.123 4.00001e-14 1 
2395 4 28.16 30.9444 -245.676 9e-14 1 
2396 4 28.16 33.3933 -246.121 1e-13 1 
2397 4 26.4 32.3915 -244.674 1.09289e-09 1 
2398 4 26.4 34.8404 -245.119 1.12946e-10 1 
2399 4 28.16 33.8386 -243.672 8.48487e-09 1 
2400 4 28.16 36.2874 -244.117 5.49993e-09 1 
2401 1 26.4 35.2856 -242.67 3.67149e-08 1 
2402 4 26.4 37.7345 -243.116 3.16605e-08 1 
2403 1 28.16 36.7326 -241.668 9.85646e-09 1 
2404 1 28.16 39.1815 -242.114 1.14712e-08 1 
2405 1 26.4 38.1796 -240.667 2.16604e-09 1 
2406 1 26.4 40.6285 -241.112 2.71651e-09 1 
2407 1 28.16 39.6266 -239.665 3.65275e-09 1 
2408 1 28.16 42.0755 -240.11 3.42894e-09 1 
2409 1 26.4 41.0736 -238.663 5.05874e-09 1 
2410 1 26.4 43.5225 -239.108 2.97626e-09 1 
2411 1 28.16 42.5206 -237.661 3.57689e-09 1 
2412 1 28.16 44.9695 -238.106 3.20072e-09 1 
2413 1 26.4 43.9676 -236.659 2.10249e-09 1 
2414 1 26.4 46.4165 -237.105 1.88023e-09 1 
2415 1 28.16 45.4146 -235.657 2.22009e-09 1 
2416 1 28.16 47.8635 -236.103 7.91064e-10 1 
2417 1 26.4 46.8615 -234.656 1.45296e-09 1 
2418 1 26.4 49.3104 -235.101 1.10838e-09 1 
2419 1 28.16 48.3085 -233.654 3.9301e-10 1 
2420 1 28.16 50.7574 -234.099 2.4082e-09 1 
2421 1 26.4 49.7555 -232.652 9.14036e-10 1 
2422 1 26.4 52.2044 -233.097 2.24766e-09 1 
2423 1 28.16 51.2024 -231.65 3.32241e-09 1 
2424 1 28.16 53.6513 -232.095 3.83176e-09 1 
2425 1 26.4 52.6494 -230.648 9.64611e-10 1 
2426 1 26.4 55.0983 -231.094 2.55629e-09 1 
2427 1 28.16 54.0964 -229.647 2.43789e-09 1 
2428 4 26.4 18.8114 -249.794 30.976 5 
2429 4 28.16 20.2585 -248.792 12.3904 5 
2430 4 28.16 22.7073 -249.238 24.7808 5 
2431 4 26.4 21.7055 -247.791 6.1952 5 
2432 4 26.4 24.1544 -248.236 6.1952 5 
2433 4 28.16 23.1526 -246.789 9e-14 1 
2434 4 28.16 25.6014 -247.234 9e-14 1 
2435 4 26.4 24.5996 -245.787 6e-14 1 
2436 4 26.4 27.0485 -246.232 5e-14 1 
2437 4 28.16 26.0467 -244.785 1.78846e-09 1 
2438 4 28.16 28.4956 -245.23 2.97093e-09 1 
2439 4 26.4 27.4938 -243.783 1.59673e-08 1 
2440 4 26.4 29.9426 -244.229 1.0498e-08 1 
2441 1 28.16 28.9408 -242.782 5.15413e-08 1 
2442 4 28.16 31.3897 -243.227 2.55966e-08 1 
2443 1 26.4 30.3878 -241.78 9.09793e-09 1 
2444 1 26.4 32.8367 -242.225 1.9306e-08 1 
2445 1 28.16 31.8348 -240.778 8.04125e-09 1 
2446 1 28.16 34.2837 -241.223 1.16432e-08 1 
2447 1 26.4 33.2818 -239.776 2.29598e-09 1 
2448 1 26.4 35.7307 -240.221 2.00651e-09 1 
2449 1 28.16 34.7288 -238.774 1.47741e-09 1 
2450 1 28.16 37.1777 -239.22 3.80474e-09 1 
2451 1 26.4 36.1758 -237.772 4.0221e-09 1 
2452 1 26.4 38.6247 -238.218 3.68575e-09 1 
2453 1 28.16 37.6228 -236.771 1.2727e-08 1 
2454 1 28.16 40.0717 -237.216 5.67516e-09 1 
2455 1 26.4 39.0698 -235.769 2.40754e-09 1 
2456 1 26.4 41.5187 -236.214 1.40503e-09 1 
2457 1 28.16 40.5167 -234.767 2.12265e-09 1 
2458 1 28.16 42.9657 -235.212 2.23234e-09 1 
2459 1 26.4 41.9637 -233.765 1.23504e-09 1 
2460 1 26.4 44.4126 -234.21 1.24571e-09 1 
2461 1 28.16 43.4107 -232.763 9.24528e-10 1 
2462 1 28.16 45.8596 -233.209 1.25823e-09 1 
2463 1 26.4 44.8577 -231.761 1.17976e-09 1 
2464 1 26.4 47.3066 -232.207 1.68265e-09 1 
2465 1 28.16 46.3046 -230.76 2.54322e-09 1 
2466 1 28.16 48.7535 -231.205 1.7156e-09 1 
2467 1 26.4 47.7516 -229.758 8.15462e-10 1 
2468 1 26.4 50.2005 -230.203 2.27416e-09 1 
2469 1 28.16 49.1986 -228.756 6.08529e-10 1 
2470 1 28.16 51.6475 -229.201 2.08622e-09 1 
2471 1 26.4 50.6456 -227.754 1.61619e-09 1 
2472 1 26.4 53.0945 -228.199 1.90092e-09 1 
2473 1 28.16 52.0926 -226.752 1.66284e-09 1 
2474 1 28.16 54.5415 -227.198 2.00179e-09 1 
2475 1 26.4 53.5396 -225.751 3.1042e-09 1 
2476 1 28.16 54.9865 -224.749 1.85614e-09 1 
2477 4 28.16 12.4666 -249.906 30.976 5 
2478 4 26.4 13.9137 -248.904 12.3904 5 
2479 4 26.4 16.3625 -249.349 24.7808 5 
2480 4 28.16 15.3607 -247.902 6.1952 5 
2481 4 28.16 17.8096 -248.347 6.1952 5 
2482 4 26.4 16.8078 -246.9 1.1e-13 1 
2483 4 26.4 19.2567 -247.345 9e-14 1 
2484 4 28.16 18.2548 -245.898 8e-14 1 
2485 4 28.16 20.7037 -246.344 9e-14 1 
2486 4 26.4 19.7019 -244.897 1.01163e-09 1 
2487 4 26.4 22.1508 -245.342 4e-14 1 
2488 4 28.16 21.149 -243.895 7.87872e-09 1 
2489 4 28.16 23.5978 -244.34 3.3504e-09 1 
2490 4 26.4 22.596 -242.893 3.85991e-08 1 
2491 4 26.4 25.0449 -243.338 2.26064e-08 1 
2492 1 28.16 24.043 -241.891 8.68169e-09 1 
2493 1 28.16 26.4919 -242.336 1.76579e-08 1 
2494 1 26.4 25.49 -240.889 4.28283e-09 1 
2495 1 26.4 27.9389 -241.335 1.11962e-08 1 
2496 1 28.16 26.937 -239.887 1.83465e-09 1 
2497 1 28.16 29.3859 -240.333 1.1242e-08 1 
2498 1 26.4 28.384 -238.886 2.54028e-09 1 
2499 1 26.4 30.8329 -239.331 2.93656e-09 1 
2500 1 28.16 29.831 -237.884 3.62071e-09 1 
2501 1 28.16 32.2799 -238.329 9.60968e-10 1 
2502 1 26.4 31.278 -236.882 1.70704e-09 1 
2503 1 26.4 33.7269 -237.327 2.36815e-09 1 
2504 1 28.16 32.725 -235.88 2.33294e-09 1 
2505 1 28.16 35.1739 -236.325 3.78151e-09 1 
2506 1 26.4 34.172 -234.878 1.61096e-09 1 
2507 1 26.4 36.6209 -235.324 1.5205e-09 1 
2508 1 28.16 35.6189 -233.876 1.66629e-09 1 
2509 1 28.16 38.0678 -234.322 1.31536e-09 1 
2510 1 26.4 37.0659 -232.875 1.4564e-09 1 
2511 1 26.4 39.5148 -233.32 1.01058e-09 1 
2512 1 28.16 38.5129 -231.873 1.28944e-09 1 
2513 1 28.16 40.9618 -232.318 1.76782e-09 1 
2514 1 26.4 39.9599 -230.871 5.86237e-10 1 
2515 1 26.4 42.4088 -231.316 3.263e-09 1 
2516 1 28.16 41.4069 -229.869 9.96614e-10 1 
2517 1 28.16 43.8558 -230.314 3.95378e-09 1 
2518 1 26.4 42.8538 -228.867 3.9567e-09 1 
2519 1 26.4 45.3027 -229.313 4.32917e-09 1 
2520 1 28.16 44.3008 -227.865 2.07448e-09 1 
2521 1 28.16 46.7497 -228.311 2.33318e-09 1 
2522 1 26.4 45.7478 -226.864 1.9902e-09 1 
2523 1 26.4 48.1967 -227.309 1.80813e-09 1 
2524 1 28.16 47.1948 -225.862 2.16393e-09 1 
2525 1 28.16 49.6437 -226.307 1.55655e-09 1 
2526 1 26.4 48.6418 -224.86 5.5483e-09 1 
2527 1 26.4 51.0907 -225.305 7.07313e-10 1 
2528 1 28.16 50.0888 -223.858 8.49962e-10 1 
2529 1 28.16 52.5376 -224.303 1.1608e-09 1 
2530 1 26.4 51.5357 -222.856 8.26356e-10 1 
2531 1 26.4 53.9846 -223.302 7.9254e-09 1 
2532 1 28.16 52.9827 -221.855 1.96055e-09 1 
2533 1 26.4 54.4297 -220.853 3.02097e-09 1 
2534 4 26.4 6.12182 -250.017 30.976 5 
2535 4 28.16 7.56888 -249.015 12.3904 5 
2536 4 28.16 10.0177 -249.46 24.7808 5 
2537 4 26.4 9.01594 -248.013 6.1952 5 
2538 4 26.4 11.4648 -248.459 6.1952 5 
2539 4 28.16 10.463 -247.011 9e-14 1 
2540 4 28.16 12.9119 -247.457 8e-14 1 
2541 4 26.4 11.9101 -246.01 9e-14 1 
2542 4 26.4 14.3589 -246.455 1.1e-13 1 
2543 4 28.16 13.3571 -245.008 7.08487e-10 1 
2544 4 28.16 15.806 -245.453 2e-14 1 
2545 4 26.4 14.8042 -244.006 6.48228e-09 1 
2546 4 26.4 17.253 -244.451 3.74654e-09 1 
2547 4 28.16 16.2512 -243.004 3.65017e-08 1 
2548 4 28.16 18.7001 -243.449 2.06532e-08 1 
2549 1 26.4 17.6982 -242.002 6.49267e-09 1 
2550 1 26.4 20.1471 -242.448 1.48828e-08 1 
2551 1 28.16 19.1452 -241.001 1.84218e-09 1 
2552 1 28.16 21.5941 -241.446 5.5125e-09 1 
2553 1 26.4 20.5922 -239.999 2.5889e-09 1 
2554 1 26.4 23.0411 -240.444 1.30466e-09 1 
2555 1 28.16 22.0392 -238.997 4.46868e-09 1 
2556 1 28.16 24.4881 -239.442 2.47804e-09 1 
2557 1 26.4 23.4862 -237.995 5.33571e-09 1 
2558 1 26.4 25.9351 -238.44 2.34596e-09 1 
2559 1 28.16 24.9332 -236.993 5.85507e-09 1 
2560 1 28.16 27.3821 -237.439 3.7226e-09 1 
2561 1 26.4 26.3802 -235.991 3.32238e-09 1 
2562 1 26.4 28.8291 -236.437 1.24807e-09 1 
2563 1 28.16 27.8272 -234.99 2.01996e-09 1 
2564 1 28.16 30.2761 -235.435 2.63825e-09 1 
2565 1 26.4 29.2741 -233.988 1.98185e-09 1 
2566 1 26.4 31.723 -234.433 1.8317e-09 1 
2567 1 28.16 30.7211 -232.986 3.29681e-10 1 
2568 1 28.16 33.17 -233.431 3.04349e-09 1 
2569 1 26.4 32.1681 -231.984 1.06462e-09 1 
2570 1 26.4 34.617 -232.429 2.36647e-09 1 
2571 1 28.16 33.6151 -230.982 5.11949e-09 1 
2572 1 28.16 36.064 -231.428 9.69288e-10 1 
2573 1 26.4 35.062 -229.981 2.28962e-09 1 
2574 1 26.4 37.511 -230.426 2.89819e-09 1 
2575 1 28.16 36.509 -228.979 3.99801e-09 1 
2576 1 28.16 38.9579 -229.424 4.15287e-10 1 
2577 1 26.4 37.956 -227.977 1.04096e-09 1 
2578 1 26.4 40.4049 -228.422 9.80715e-10 1 
2579 1 28.16 39.403 -226.975 1.81543e-09 1 
2580 1 28.16 41.8519 -227.42 1.82554e-09 1 
2581 1 26.4 40.85 -225.973 1.6373e-09 1 
2582 1 26.4 43.2989 -226.418 4.98788e-09 1 
2583 1 28.16 42.297 -224.971 2.08145e-09 1 
2584 1 28.16 44.7459 -225.417 1.81729e-09 1 
2585 1 26.4 43.744 -223.969 2.94433e-09 1 
2586 1 26.4 46.1929 -224.415 1.02787e-09 1 
2587 1 28.16 45.191 -222.968 1.58517e-09 1 
2588 1 28.16 47.6399 -223.413 1.27621e-09 1 
2589 1 26.4 46.6379 -221.966 2.68287e-10 1 
2590 1 26.4 49.0868 -222.411 3.27193e-09 1 
2591 1 28.16 48.0849 -220.964 2.93541e-09 1 
2592 1 28.16 50.5338 -221.409 1.51139e-09 1 
2593 1 26.4 49.5319 -219.962 2.65167e-09 1 
2594 1 26.4 51.9808 -220.407 4.30047e-09 1 
2595 1 28.16 50.9789 -218.96 1.06691e-09 1 
2596 1 28.16 53.4278 -219.406 3.90881e-09 1 
2597 1 26.4 52.4259 -217.959 2.50452e-09 1 
2598 1 26.4 54.8748 -218.404 3.53203e-09 1 
2601 4 26.4 1.22408 -249.126 24.7808 5 
2602 4 26.4 3.67295 -249.572 24.7808 5 
2603 4 28.16 2.67114 -248.125 6.1952 5 
2604 4 28.16 5.12001 -248.57 6.1952 5 
2605 4 26.4 4.1182 -247.123 5e-14 1 
2606 4 26.4 6.56707 -247.568 6e-14 1 
2607 4 28.16 5.56526 -246.121 9e-14 1 
2608 4 28.16 8.01413 -246.566 9e-14 1 
2609 4 26.4 7.01232 -245.119 9.84862e-11 1 
2610 4 26.4 9.46118 -245.564 5e-14 1 
2611 4 28.16 8.45937 -244.117 5.48392e-09 1 
2612 4 28.16 10.9082 -244.563 2.45987e-09 1 
2613 4 26.4 9.90643 -243.116 3.17344e-08 1 
2614 4 26.4 12.3553 -243.561 1.61857e-08 1 
2615 1 28.16 11.3534 -242.114 1.1523e-08 1 
2616 1 28.16 13.8023 -242.559 2.62307e-08 1 
2617 1 26.4 12.8005 -241.112 2.55986e-09 1 
2618 1 26.4 15.2493 -241.557 6.26055e-09 1 
2619 1 28.16 14.2475 -240.11 3.26989e-09 1 
2620 1 28.16 16.6963 -240.555 1.36757e-09 1 
2621 1 26.4 15.6945 -239.108 3.17192e-09 1 
2622 1 26.4 18.1434 -239.553 2.22634e-09 1 
2623 1 28.16 17.1415 -238.106 3.27182e-09 1 
2624 1 28.16 19.5904 -238.552 4.49497e-09 1 
2625 1 26.4 18.5884 -237.105 1.78898e-09 1 
2626 1 26.4 21.0373 -237.55 3.03941e-09 1 
2627 1 28.16 20.0354 -236.103 8.62975e-10 1 
2628 1 28.16 22.4843 -236.548 6.41967e-09 1 
2629 1 26.4 21.4824 -235.101 1.13108e-09 1 
2630 1 26.4 23.9313 -235.546 3.86874e-09 1 
2631 1 28.16 22.9294 -234.099 2.35311e-09 1 
2632 1 28.16 25.3783 -234.544 9.15184e-10 1 
2633 1 26.4 24.3763 -233.097 2.23717e-09 1 
2634 1 26.4 26.8252 -233.543 3.62555e-09 1 
2635 1 28.16 25.8233 -232.095 3.53004e-09 1 
2636 1 28.16 28.2722 -232.541 1.19432e-09 1 
2637 1 26.4 27.2703 -231.094 2.74544e-09 1 
2638 1 26.4 29.7192 -231.539 1.43486e-09 1 
2639 1 28.16 28.7172 -230.092 1.40868e-09 1 
2640 1 28.16 31.1661 -230.537 6.31562e-10 1 
2641 1 26.4 30.1642 -229.09 2.42384e-09 1 
2642 1 26.4 32.6131 -229.535 3.80174e-10 1 
2643 1 28.16 31.6112 -228.088 1.15116e-09 1 
2644 1 28.16 34.0601 -228.533 9.17087e-10 1 
2645 1 26.4 33.0582 -227.086 1.60959e-09 1 
2646 1 26.4 35.5071 -227.532 4.18056e-09 1 
2647 1 28.16 34.5052 -226.084 1.03024e-09 1 
2648 1 28.16 36.9541 -226.53 3.21897e-09 1 
2649 1 26.4 35.9522 -225.083 4.11138e-09 1 
2650 1 26.4 38.4011 -225.528 1.2543e-09 1 
2651 1 28.16 37.3992 -224.081 1.55583e-09 1 
2652 1 28.16 39.8481 -224.526 1.61951e-09 1 
2653 1 26.4 38.8461 -223.079 1.48259e-09 1 
2654 1 26.4 41.2951 -223.524 3.22066e-09 1 
2655 1 28.16 40.2931 -222.077 2.60702e-09 1 
2656 1 28.16 42.7421 -222.522 3.38119e-09 1 
2657 1 26.4 41.7401 -221.075 1.31745e-09 1 
2658 1 26.4 44.189 -221.521 1.87045e-09 1 
2659 1 28.16 43.1871 -220.073 1.72609e-09 1 
2660 1 28.16 45.636 -220.519 4.83857e-10 1 
2661 1 26.4 44.6341 -219.072 9.75053e-10 1 
2662 1 26.4 47.083 -219.517 2.01407e-09 1 
2663 1 28.16 46.0811 -218.07 1.4554e-09 1 
2664 1 28.16 48.53 -218.515 7.57617e-09 1 
2666 1 26.4 49.977 -217.513 2.31324e-09 1 
2675 4 28.16 0.222274 -247.679 6.1952 5 
2676 4 26.4 1.66933 -246.678 7.2761e-14 1 
2677 4 28.16 0.667523 -245.23 2.96504e-09 1 
2678 4 28.16 3.11639 -245.676 5e-14 1 
2679 4 26.4 2.11458 -244.229 1.03997e-08 1 
2680 4 26.4 4.56345 -244.674 1.09079e-09 1 
2681 4 28.16 3.56164 -243.227 2.54205e-08 1 
2682 4 28.16 6.01051 -243.672 8.5375e-09 1 
2683 1 26.4 5.00867 -242.225 1.95205e-08 1 
2684 1 26.4 7.45756 -242.67 3.75357e-08 1 
2685 1 28.16 6.45568 -241.223 1.12975e-08 1 
2686 1 28.16 8.90456 -241.668 9.90399e-09 1 
2687 1 26.4 7.90267 -240.221 1.96371e-09 1 
2688 1 26.4 10.3516 -240.667 2.09008e-09 1 
2689 1 28.16 9.34966 -239.22 3.93709e-09 1 
2690 1 28.16 11.7986 -239.665 3.44303e-09 1 
2691 1 26.4 10.7967 -238.218 3.75371e-09 1 
2692 1 26.4 13.2456 -238.663 5.1843e-09 1 
2693 1 28.16 12.2437 -237.216 5.62642e-09 1 
2694 1 28.16 14.6926 -237.661 3.64574e-09 1 
2695 1 26.4 13.6906 -236.214 1.39169e-09 1 
2696 1 26.4 16.1395 -236.659 2.31184e-09 1 
2697 1 28.16 15.1376 -235.212 2.1935e-09 1 
2698 1 28.16 17.5865 -235.657 2.12927e-09 1 
2699 1 26.4 16.5846 -234.21 1.14777e-09 1 
2700 1 26.4 19.0335 -234.656 1.5792e-09 1 
2701 1 28.16 18.0316 -233.209 1.27296e-09 1 
2702 1 28.16 20.4805 -233.654 3.60575e-10 1 
2703 1 26.4 19.4785 -232.207 1.71937e-09 1 
2704 1 26.4 21.9274 -232.652 8.36802e-10 1 
2705 1 28.16 20.9255 -231.205 1.51381e-09 1 
2706 1 28.16 23.3744 -231.65 3.25061e-09 1 
2707 1 26.4 22.3725 -230.203 2.30252e-09 1 
2708 1 26.4 24.8214 -230.648 9.17324e-10 1 
2709 1 28.16 23.8195 -229.201 2.03451e-09 1 
2710 1 28.16 26.2684 -229.647 2.3307e-09 1 
2711 1 26.4 25.2664 -228.199 2.02907e-09 1 
2712 1 26.4 27.7153 -228.645 2.70242e-09 1 
2713 1 28.16 26.7134 -227.198 2.01353e-09 1 
2714 1 28.16 29.1623 -227.643 5.13587e-10 1 
2715 1 26.4 28.1604 -226.196 3.91148e-10 1 
2716 1 26.4 30.6093 -226.641 9.83952e-10 1 
2717 1 28.16 29.6074 -225.194 1.92702e-09 1 
2718 1 28.16 32.0563 -225.639 2.22984e-09 1 
2719 1 26.4 31.0544 -224.192 5.62465e-10 1 