ITEM: TIMESTEP
0
ITEM: NUMBER OF ATOMS
34472
ITEM: BOX BOUNDS xy xz yz pp pp ss
0 43.3527 2.9671
0 61.3292 2.80226
-149.198 167.927 29.7885
ITEM: ATOMS id type x y z c_csym c_cna 
326 1 23.1587 31.8575 -134.265 7.50206e-09 1 
327 1 22.9939 31.873 -131.781 4.15156e-09 1 
328 1 25.4665 31.6404 -131.616 1.9135e-09 1 
340 1 23.4883 31.8265 -139.232 8.68582e-09 1 
341 1 23.3235 31.842 -136.748 4.28514e-09 1 
342 1 25.7961 31.6094 -136.583 3.15245e-09 1 
343 1 25.6313 31.6249 -134.099 8.04376e-09 1 
344 1 28.1039 31.3923 -133.934 6.6305e-09 1 
345 1 27.9391 31.4078 -131.45 3.28476e-09 1 
346 1 30.4117 31.1752 -131.285 2.6316e-09 1 
354 4 23.8181 31.7955 -144.199 1.04977e-09 1 
355 1 23.6532 31.811 -141.715 4.86557e-09 1 
356 1 26.1258 31.5784 -141.55 1.90788e-09 1 
357 1 25.9609 31.5939 -139.066 2.39867e-09 1 
358 1 28.4335 31.3613 -138.901 1.80245e-09 1 
359 1 28.2687 31.3768 -136.417 5.78996e-09 1 
360 1 30.7412 31.1442 -136.252 9.83208e-09 1 
361 1 30.5765 31.1597 -133.768 2.83877e-09 1 
362 1 33.049 30.9271 -133.603 4.65068e-09 1 
363 1 32.8843 30.9426 -131.119 1.50203e-09 1 
364 1 35.3569 30.71 -130.953 8.42493e-09 1 
366 4 21.1807 0.223781 -149.166 30.976 5 
367 4 21.0158 0.239288 -146.682 3.881e-14 1 
368 4 26.4555 31.5474 -146.517 1.08168e-13 1 
369 4 26.2907 31.5629 -144.033 7.94651e-10 1 
370 4 28.7633 31.3303 -143.868 8.74612e-10 1 
371 1 28.5984 31.3458 -141.384 2.54796e-09 1 
372 1 31.071 31.1132 -141.219 2.76419e-09 1 
373 1 30.9061 31.1287 -138.735 1.94949e-09 1 
374 1 33.3787 30.8961 -138.57 3.40994e-09 1 
375 1 33.2138 30.9116 -136.086 8.86945e-09 1 
376 1 35.6864 30.679 -135.92 2.96113e-09 1 
377 1 35.5216 30.6945 -133.437 3.52363e-09 1 
378 4 26.6204 31.5319 -149 24.7808 5 
379 4 29.0929 31.2993 -148.835 24.7808 5 
380 4 28.9281 31.3148 -146.351 6.8768e-14 1 
381 4 31.4007 31.0822 -146.186 8.4568e-14 1 
382 4 31.2359 31.0977 -143.702 6.91116e-10 1 
383 4 33.7084 30.8651 -143.537 1.12405e-09 1 
384 1 33.5436 30.8806 -141.053 3.21931e-09 1 
385 1 36.0162 30.648 -140.888 5.26247e-09 1 
386 1 35.8513 30.6635 -138.404 3.9033e-09 1 
387 4 31.5655 31.0667 -148.669 24.7808 5 
388 4 34.0381 30.8341 -148.504 24.7808 5 
389 4 33.8733 30.8496 -146.02 9.5168e-14 1 
390 4 36.3459 30.617 -145.855 7.738e-14 1 
391 4 36.181 30.6325 -143.371 9.11733e-09 1 
392 4 36.5107 30.6015 -148.338 24.7808 5 
1706 1 37.9942 30.4619 -133.271 2.72491e-09 1 
1707 1 37.8295 30.4774 -130.788 3.89498e-09 1 
1708 1 40.3021 30.2448 -130.622 5.14772e-09 1 
1770 1 38.3239 30.4309 -138.238 2.95548e-09 1 
1771 1 38.159 30.4464 -135.755 4.17995e-09 1 
1772 1 3.04831 30.2138 -135.589 6.03849e-09 1 
1773 1 2.88352 30.2293 -133.106 4.27315e-09 1 
1774 1 4.36701 31.8575 -134.265 7.50172e-09 1 
1775 1 4.20225 31.873 -131.781 4.15172e-09 1 
1776 1 5.3561 29.9967 -132.94 3.1531e-09 1 
1777 1 5.19133 30.0122 -130.457 1.82695e-09 1 
1778 1 6.67484 31.6404 -131.616 1.91356e-09 1 
1780 1 7.66393 29.7796 -130.291 3.71228e-09 1 
1832 4 38.6536 30.3999 -143.205 1.42124e-08 1 
1833 1 38.4887 30.4154 -140.722 8.69055e-09 1 
1834 1 3.378 30.1828 -140.556 7.20318e-09 1 
1835 1 3.21314 30.1983 -138.073 6.92262e-09 1 
1836 1 4.69668 31.8265 -139.232 8.68758e-09 1 
1837 1 4.53183 31.842 -136.748 4.28532e-09 1 
1838 1 5.68573 29.9657 -137.907 2.38368e-09 1 
1839 1 5.52089 29.9812 -135.424 6.38946e-09 1 
1840 1 7.00442 31.6094 -136.583 3.15252e-09 1 
1841 1 6.8396 31.6249 -134.099 8.0439e-09 1 
1842 1 7.99348 29.7486 -135.258 2.82921e-09 1 
1843 1 7.8287 29.7641 -132.775 4.09862e-09 1 
1844 1 9.31219 31.3923 -133.934 6.63048e-09 1 
1845 1 9.14743 31.4078 -131.45 3.28477e-09 1 
1846 1 10.3013 29.5315 -132.609 3.03573e-09 1 
1847 1 10.1365 29.547 -130.126 7.83109e-09 1 
1848 1 11.62 31.1752 -131.285 2.63156e-09 1 
1850 1 12.6091 29.3144 -129.96 6.04968e-09 1 
1894 4 38.9833 30.3689 -148.172 24.7808 5 
1895 4 38.8185 30.3844 -145.689 2.747e-14 1 
1896 4 3.70772 30.1518 -145.523 9.4114e-14 1 
1897 4 3.54289 30.1673 -143.04 7.85351e-09 1 
1898 4 5.02644 31.7955 -144.199 1.05357e-09 1 
1899 1 4.86157 31.811 -141.715 4.86727e-09 1 
1900 4 6.01547 29.9347 -142.874 4.62959e-09 1 
1901 1 5.85059 29.9502 -140.391 1.85671e-09 1 
1902 1 7.33416 31.5784 -141.55 1.90917e-09 1 
1903 1 7.16927 31.5939 -139.066 2.3997e-09 1 
1904 1 8.32319 29.7176 -140.225 1.77051e-09 1 
1905 1 8.15831 29.7331 -137.742 5.65683e-09 1 
1906 1 9.64186 31.3613 -138.901 1.80246e-09 1 
1907 1 9.477 31.3768 -136.417 5.79029e-09 1 
1908 1 10.6309 29.5005 -137.576 5.63189e-09 1 
1909 1 10.4661 29.516 -135.093 3.95298e-09 1 
1910 1 11.9496 31.1442 -136.252 9.83201e-09 1 
1911 1 11.7848 31.1597 -133.768 2.83886e-09 1 
1912 1 12.9387 29.2834 -134.927 6.26916e-09 1 
1913 1 12.7739 29.2989 -132.444 2.02973e-09 1 
1914 1 14.2574 30.9271 -133.603 4.65086e-09 1 
1915 1 14.0926 30.9426 -131.119 1.50219e-09 1 
1916 1 15.2465 29.0663 -132.278 4.7692e-09 1 
1917 1 15.0817 29.0818 -129.794 2.69272e-09 1 
1918 1 16.5652 30.71 -130.953 8.42509e-09 1 
1920 1 17.5543 28.8491 -129.629 6.82824e-09 1 
1956 4 3.87256 30.1363 -148.007 12.3904 5 
1957 4 2.38901 0.223781 -149.166 30.976 5 
1958 4 2.22417 0.239288 -146.682 6.5025e-14 1 
1959 4 6.34515 29.9037 -147.841 6.1952 5 
1960 4 6.18031 29.9192 -145.358 9e-14 1 
1961 4 7.66386 31.5474 -146.517 9.7768e-14 1 
1962 4 7.49902 31.5629 -144.033 7.91842e-10 1 
1963 4 8.6529 29.6866 -145.192 9e-14 1 
1964 4 8.48806 29.7021 -142.709 3.55865e-09 1 
1965 4 9.97161 31.3303 -143.868 8.76157e-10 1 
1966 1 9.80675 31.3458 -141.384 2.5489e-09 1 
1967 4 10.9606 29.4695 -142.543 2.40465e-09 1 
1968 1 10.7958 29.485 -140.06 4.33054e-09 1 
1969 1 12.2793 31.1132 -141.219 2.76485e-09 1 
1970 1 12.1145 31.1287 -138.735 1.94989e-09 1 
1971 1 13.2684 29.2524 -139.894 4.6425e-09 1 
1972 1 13.1035 29.2679 -137.411 8.59312e-09 1 
1973 1 14.587 30.8961 -138.57 3.41173e-09 1 
1974 1 14.4222 30.9116 -136.086 8.86984e-09 1 
1975 1 15.5761 29.0353 -137.245 3.27276e-09 1 
1976 1 15.4113 29.0508 -134.762 3.29724e-09 1 
1977 1 16.8948 30.679 -135.92 2.96162e-09 1 
1978 1 16.73 30.6945 -133.437 3.52377e-09 1 
1979 1 17.8839 28.8182 -134.596 5.92752e-09 1 
1980 1 17.7191 28.8337 -132.112 4.17695e-09 1 
1981 1 19.2026 30.4619 -133.271 2.72491e-09 1 
1982 1 19.0378 30.4774 -130.788 3.89507e-09 1 
1983 1 20.1917 28.6011 -131.947 1.81194e-09 1 
1985 1 21.5104 30.2448 -130.622 5.14784e-09 1 
2013 4 7.8287 31.5319 -149 24.7808 5 
2014 4 8.81774 29.6711 -147.676 6.1952 5 
2015 4 10.3013 31.2993 -148.835 24.7808 5 
2016 4 10.1364 31.3148 -146.351 9.8368e-14 1 
2017 4 11.2903 29.4385 -147.51 6.1952 5 
2018 4 11.1255 29.454 -145.027 3e-14 1 
2019 4 12.609 31.0822 -146.186 8.07679e-14 1 
2020 4 12.4442 31.0977 -143.702 6.93272e-10 1 
2021 4 13.5981 29.2214 -144.861 5e-14 1 
2022 4 13.4332 29.2369 -142.378 4.41083e-09 1 
2023 4 14.9168 30.8651 -143.537 1.11942e-09 1 
2024 1 14.7519 30.8806 -141.053 3.22094e-09 1 
2025 4 15.9058 29.0043 -142.212 7.58886e-09 1 
2026 1 15.7409 29.0198 -139.729 1.16168e-09 1 
2027 1 17.2245 30.648 -140.888 5.26464e-09 1 
2028 1 17.0596 30.6635 -138.404 3.90455e-09 1 
2029 1 18.2135 28.7872 -139.563 5.81014e-09 1 
2030 1 18.0487 28.8027 -137.079 3.76566e-09 1 
2031 1 19.5322 30.4309 -138.238 2.95625e-09 1 
2032 1 19.3674 30.4464 -135.755 4.1802e-09 1 
2033 1 20.5213 28.5701 -136.914 3.75711e-09 1 
2034 1 20.3564 28.5856 -134.43 6.31061e-09 1 
2035 1 21.84 30.2138 -135.589 6.03827e-09 1 
2036 1 21.6752 30.2293 -133.106 4.27305e-09 1 
2037 1 22.829 28.353 -134.265 7.18013e-09 1 
2038 1 22.6643 28.3684 -131.781 2.35756e-09 1 
2039 1 24.1478 29.9967 -132.94 3.15318e-09 1 
2040 1 23.983 30.0122 -130.457 1.82696e-09 1 
2041 1 25.1369 28.1359 -131.616 1.49899e-09 1 
2043 1 26.4556 29.7796 -130.291 3.71232e-09 1 
2063 4 12.7739 31.0667 -148.669 24.7808 5 
2064 4 13.7629 29.2059 -147.345 6.1952 5 
2065 4 15.2465 30.8341 -148.504 24.7808 5 
2066 4 15.0816 30.8496 -146.02 1.06768e-13 1 
2067 4 16.2355 28.9733 -147.179 6.1952 5 
2068 4 16.0707 28.9888 -144.696 1.5e-13 1 
2069 4 17.5542 30.617 -145.855 7.7568e-14 1 
2070 4 17.3894 30.6325 -143.371 9.1173e-09 1 
2071 4 18.5432 28.7562 -144.53 4.09352e-09 1 
2072 1 18.3784 28.7717 -142.047 8.08023e-08 1 
2073 4 19.862 30.3999 -143.205 1.42043e-08 1 
2074 1 19.6971 30.4154 -140.722 8.68983e-09 1 
2075 1 20.851 28.5391 -141.881 2.64462e-08 1 
2076 1 20.6861 28.5546 -139.397 2.51393e-09 1 
2077 1 22.1697 30.1828 -140.556 7.20253e-09 1 
2078 1 22.0048 30.1983 -138.073 6.92154e-09 1 
2079 1 23.1587 28.322 -139.232 4.06696e-09 1 
2080 1 22.9939 28.3375 -136.748 1.11317e-09 1 
2081 1 24.4774 29.9657 -137.907 2.38364e-09 1 
2082 1 24.3125 29.9812 -135.424 6.38926e-09 1 
2083 1 25.4664 28.1049 -136.583 3.19976e-09 1 
2084 1 25.3016 28.1204 -134.099 3.09935e-09 1 
2085 1 26.7851 29.7486 -135.258 2.82927e-09 1 
2086 1 26.6204 29.7641 -132.775 4.0985e-09 1 
2087 1 27.7742 27.8878 -133.934 4.90782e-09 1 
2088 1 27.6094 27.9033 -131.45 3.14151e-09 1 
2089 1 29.0929 29.5315 -132.609 3.03567e-09 1 
2090 1 28.9282 29.547 -130.126 7.83084e-09 1 
2091 1 30.082 27.6707 -131.285 3.34732e-09 1 
2093 1 31.4008 29.3144 -129.96 6.04948e-09 1 
2105 4 17.719 30.6015 -148.338 24.7808 5 
2106 4 18.7081 28.7407 -147.013 6.1952 5 
2107 4 20.1916 30.3689 -148.172 24.7808 5 
2108 4 20.0268 30.3844 -145.689 4.95679e-14 1 
2109 4 21.1807 28.5081 -146.848 6.1952 5 
2110 4 21.0158 28.5236 -144.364 1.48669e-09 1 
2111 4 22.4994 30.1518 -145.523 8.7284e-14 1 
2112 4 22.3345 30.1673 -143.04 7.88321e-09 1 
2113 4 23.4884 28.291 -144.199 5.31271e-10 1 
2114 1 23.3236 28.3065 -141.715 7.62218e-09 1 
2115 4 24.8071 29.9347 -142.874 4.62174e-09 1 
2116 1 24.6422 29.9502 -140.391 1.85637e-09 1 
2117 1 25.7962 28.0739 -141.55 7.89873e-09 1 
2118 1 25.6313 28.0894 -139.066 3.33729e-09 1 
2119 1 27.1148 29.7176 -140.225 1.76986e-09 1 
2120 1 26.95 29.7331 -137.742 5.65677e-09 1 
2121 1 28.1039 27.8568 -138.901 4.88447e-09 1 
2122 1 27.939 27.8723 -136.417 3.13225e-09 1 
2123 1 29.4226 29.5005 -137.576 5.63157e-09 1 
2124 1 29.2577 29.516 -135.093 3.95281e-09 1 
2125 1 30.4116 27.6397 -136.252 6.0341e-09 1 
2126 1 30.2468 27.6552 -133.768 3.51451e-09 1 
2127 1 31.7303 29.2834 -134.927 6.26909e-09 1 
2128 1 31.5655 29.2989 -132.444 2.0297e-09 1 
2129 1 32.7194 27.4226 -133.603 3.37118e-09 1 
2130 1 32.5546 27.438 -131.119 2.92299e-09 1 
2131 1 34.0381 29.0663 -132.278 4.76929e-09 1 
2132 1 33.8733 29.0818 -129.794 2.69279e-09 1 
2133 1 35.0272 27.2054 -130.953 1.26149e-09 1 
2135 1 36.3459 28.8491 -129.629 6.82833e-09 1 
2139 4 22.6642 30.1363 -148.007 12.3904 5 
2140 4 23.8181 28.26 -149.166 30.976 5 
2141 4 23.6533 28.2755 -146.682 4e-14 1 
2142 4 25.1368 29.9037 -147.841 6.1952 5 
2143 4 24.972 29.9192 -145.358 7e-14 1 
2144 4 26.1258 28.0429 -146.517 8e-14 1 
2145 4 25.961 28.0584 -144.033 3.17866e-10 1 
2146 4 27.4446 29.6866 -145.192 9e-14 1 
2147 4 27.2797 29.7021 -142.709 3.56554e-09 1 
2148 4 28.4336 27.8258 -143.868 4.52076e-11 1 
2149 1 28.2687 27.8413 -141.384 3.84425e-09 1 
2150 4 29.7523 29.4695 -142.543 2.3962e-09 1 
2151 1 29.5874 29.485 -140.06 4.33278e-09 1 
2152 1 30.7413 27.6087 -141.219 4.38783e-09 1 
2153 1 30.5765 27.6242 -138.735 3.09528e-09 1 
2154 1 32.06 29.2524 -139.894 4.6398e-09 1 
2155 1 31.8951 29.2679 -137.411 8.59218e-09 1 
2156 1 33.0491 27.3916 -138.57 3.6474e-09 1 
2157 1 32.8842 27.4071 -136.086 2.65166e-09 1 
2158 1 34.3677 29.0353 -137.245 3.27257e-09 1 
2159 1 34.2029 29.0508 -134.762 3.29726e-09 1 
2160 1 35.3568 27.1745 -135.92 1.29042e-09 1 
2161 1 35.192 27.19 -133.437 4.46788e-09 1 
2162 1 36.6755 28.8182 -134.596 5.92744e-09 1 
2163 1 36.5107 28.8337 -132.112 4.17709e-09 1 
2164 4 26.2907 28.0274 -149 24.7808 5 
2165 4 27.6094 29.6711 -147.676 6.1952 5 
2166 4 28.7633 27.7948 -148.835 24.7808 5 
2167 4 28.5984 27.8103 -146.351 9e-14 1 
2168 4 30.082 29.4385 -147.51 6.1952 5 
2169 4 29.9171 29.454 -145.027 4e-14 1 
2170 4 31.071 27.5777 -146.186 7e-14 1 
2171 4 30.9062 27.5932 -143.702 9.23622e-11 1 
2172 4 32.3897 29.2214 -144.861 1e-13 1 
2173 4 32.2249 29.2369 -142.378 4.40607e-09 1 
2174 4 33.3788 27.3606 -143.537 1.47427e-10 1 
2175 1 33.2139 27.3761 -141.053 4.52404e-09 1 
2176 4 34.6975 29.0043 -142.212 7.58485e-09 1 
2177 1 34.5326 29.0198 -139.729 1.16046e-09 1 
2178 1 35.6865 27.1435 -140.888 8.93381e-09 1 
2179 1 35.5216 27.159 -138.404 2.15003e-09 1 
2180 1 37.0052 28.7872 -139.563 5.81195e-09 1 
2181 1 36.8403 28.8027 -137.079 3.76627e-09 1 
2182 4 31.2359 27.5622 -148.669 24.7808 5 
2183 4 32.5546 29.2059 -147.345 6.1952 5 
2184 4 33.7084 27.3296 -148.504 24.7808 5 
2185 4 33.5436 27.3451 -146.02 1e-13 1 
2186 4 35.0272 28.9733 -147.179 6.1952 5 
2187 4 34.8623 28.9888 -144.696 1.2e-13 1 
2188 4 36.0162 27.1125 -145.855 6.4418e-14 1 
2189 4 35.8513 27.128 -143.371 7.84784e-09 1 
2190 4 37.3349 28.7562 -144.53 4.09435e-09 1 
2191 1 37.1701 28.7717 -142.047 8.08241e-08 1 
2192 4 36.181 27.097 -148.338 24.7808 5 
3569 1 37.6646 26.9573 -133.271 5.09226e-09 1 
3570 1 37.4998 26.9728 -130.788 2.49698e-09 1 
3571 1 38.9833 28.6011 -131.947 1.81179e-09 1 
3573 1 39.9724 26.7402 -130.622 3.56718e-09 1 
3635 1 37.9942 26.9264 -138.238 1.70275e-09 1 
3636 1 37.8294 26.9419 -135.755 4.11396e-09 1 
3637 1 39.3129 28.5701 -136.914 3.75739e-09 1 
3638 1 39.1481 28.5856 -134.43 6.31081e-09 1 
3639 1 2.71868 26.7093 -135.589 6.73773e-09 1 
3640 1 2.55386 26.7247 -133.106 9.14679e-09 1 
3641 1 4.03737 28.353 -134.265 7.18037e-09 1 
3642 1 3.8726 28.3684 -131.781 2.35775e-09 1 
3643 1 5.02646 26.4921 -132.94 3.41914e-09 1 
3644 1 4.86167 26.5076 -130.457 2.91658e-09 1 
3645 1 6.34519 28.1359 -131.616 1.49894e-09 1 
3647 1 7.33427 26.275 -130.291 2.63248e-09 1 
3701 4 38.3239 26.8954 -143.205 1.15765e-08 1 
3702 1 38.1591 26.9109 -140.722 1.06998e-08 1 
3703 1 39.6426 28.5391 -141.881 2.6424e-08 1 
3704 1 39.4778 28.5546 -139.397 2.51205e-09 1 
3705 1 3.04835 26.6783 -140.556 1.02181e-08 1 
3706 1 2.88351 26.6938 -138.073 4.87814e-09 1 
3707 1 4.36704 28.322 -139.232 4.06572e-09 1 
3708 1 4.20221 28.3375 -136.748 1.1131e-09 1 
3709 1 5.3561 26.4612 -137.907 4.56705e-09 1 
3710 1 5.19127 26.4767 -135.424 2.42385e-09 1 
3711 1 6.67478 28.1049 -136.583 3.19963e-09 1 
3712 1 6.50997 28.1204 -134.099 3.09929e-09 1 
3713 1 7.66385 26.2441 -135.258 8.21399e-09 1 
3714 1 7.49905 26.2596 -132.775 4.68625e-09 1 
3715 1 8.98256 27.8878 -133.934 4.9079e-09 1 
3716 1 8.81779 27.9033 -131.45 3.14172e-09 1 
3717 1 9.97163 26.0269 -132.609 2.70961e-09 1 
3718 1 9.80685 26.0424 -130.126 6.48636e-09 1 
3719 1 11.2904 27.6707 -131.285 3.34737e-09 1 
3721 1 12.2794 25.8098 -129.96 8.83326e-09 1 
3765 4 37.4997 28.7407 -147.013 6.1952 5 
3766 4 38.6536 26.8644 -148.172 24.7808 5 
3767 4 38.4888 26.8799 -145.689 1.8836e-14 1 
3768 4 39.9723 28.5081 -146.848 6.1952 5 
3769 4 39.8075 28.5236 -144.364 1.48689e-09 1 
3770 4 3.37805 26.6473 -145.523 9e-14 1 
3771 4 3.21321 26.6628 -143.04 5.03508e-09 1 
3772 4 4.69676 28.291 -144.199 5.32891e-10 1 
3773 1 4.5319 28.3065 -141.715 7.62911e-09 1 
3774 4 5.68579 26.4302 -142.874 2.14834e-09 1 
3775 1 5.52094 26.4457 -140.391 8.71266e-09 1 
3776 1 7.0045 28.0739 -141.55 7.8944e-09 1 
3777 1 6.83963 28.0894 -139.066 3.3374e-09 1 
3778 1 7.99352 26.2131 -140.225 1.08666e-08 1 
3779 1 7.82868 26.2286 -137.742 9.46763e-09 1 
3780 1 9.31222 27.8568 -138.901 4.88516e-09 1 
3781 1 9.14738 27.8723 -136.417 3.13234e-09 1 
3782 1 10.3013 25.996 -137.576 1.71895e-09 1 
3783 1 10.1364 26.0115 -135.093 3.03975e-09 1 
3784 1 11.62 27.6397 -136.252 6.03406e-09 1 
3785 1 11.4551 27.6552 -133.768 3.51467e-09 1 
3786 1 12.609 25.7788 -134.927 2.81717e-09 1 
3787 1 12.4442 25.7943 -132.444 5.20962e-09 1 
3788 1 13.9277 27.4226 -133.603 3.37112e-09 1 
3789 1 13.7629 27.438 -131.119 2.92292e-09 1 
3790 1 14.9168 25.5617 -132.278 5.39871e-09 1 
3791 1 14.752 25.5772 -129.794 5.54867e-09 1 
3792 1 16.2355 27.2054 -130.953 1.26155e-09 1 
3794 1 17.2246 25.3446 -129.629 2.8169e-09 1 
3830 4 3.54289 26.6318 -148.007 12.3904 5 
3831 4 5.02644 28.26 -149.166 30.976 5 
3832 4 4.8616 28.2755 -146.682 9e-14 1 
3833 4 6.01547 26.3992 -147.841 6.1952 5 
3834 4 5.85063 26.4147 -145.358 8e-14 1 
3835 4 7.33418 28.0429 -146.517 7e-14 1 
3836 4 7.16935 28.0584 -144.033 3.17979e-10 1 
3837 4 8.32322 26.1821 -145.192 6e-14 1 
3838 4 8.15838 26.1976 -142.709 1.48582e-09 1 
3839 4 9.64193 27.8258 -143.868 4.49885e-11 1 
3840 1 9.47709 27.8413 -141.384 3.84741e-09 1 
3841 4 10.631 25.965 -142.543 1.23448e-09 1 
3842 1 10.4661 25.9805 -140.06 2.3254e-09 1 
3843 1 11.9497 27.6087 -141.219 4.38651e-09 1 
3844 1 11.7848 27.6242 -138.735 3.09548e-09 1 
3845 1 12.9387 25.7479 -139.894 1.86936e-09 1 
3846 1 12.7739 25.7634 -137.411 2.03251e-09 1 
3847 1 14.2574 27.3916 -138.57 3.64803e-09 1 
3848 1 14.0926 27.4071 -136.086 2.65191e-09 1 
3849 1 15.2465 25.5308 -137.245 2.42387e-09 1 
3850 1 15.0816 25.5462 -134.762 3.20008e-09 1 
3851 1 16.5652 27.1745 -135.92 1.29045e-09 1 
3852 1 16.4003 27.19 -133.437 4.46776e-09 1 
3853 1 17.5542 25.3136 -134.596 2.82517e-09 1 
3854 1 17.3894 25.3291 -132.112 5.88483e-09 1 
3855 1 18.8729 26.9573 -133.271 5.0922e-09 1 
3856 1 18.7081 26.9728 -130.788 2.49697e-09 1 
3857 1 19.862 25.0965 -131.947 1.37712e-08 1 
3859 1 21.1807 26.7402 -130.622 3.56727e-09 1 
3889 4 7.49902 28.0274 -149 24.7808 5 
3890 4 8.48806 26.1666 -147.676 6.1952 5 
3891 4 9.97161 27.7948 -148.835 24.7808 5 
3892 4 9.80677 27.8103 -146.351 1e-13 1 
3893 4 10.9606 25.934 -147.51 6.1952 5 
3894 4 10.7958 25.9495 -145.027 5e-14 1 
3895 4 12.2794 27.5777 -146.186 6e-14 1 
3896 4 12.1145 27.5932 -143.702 9.34471e-11 1 
3897 4 13.2684 25.7169 -144.861 5e-14 1 
3898 4 13.1036 25.7324 -142.378 1.4428e-09 1 
3899 4 14.5871 27.3606 -143.537 1.48732e-10 1 
3900 1 14.4223 27.3761 -141.053 4.53341e-09 1 
3901 4 15.5761 25.4998 -142.212 5.12531e-09 1 
3902 1 15.4113 25.5153 -139.729 3.82782e-09 1 
3903 1 16.8948 27.1435 -140.888 8.93096e-09 1 
3904 1 16.73 27.159 -138.404 2.14993e-09 1 
3905 1 17.8839 25.2827 -139.563 7.8514e-09 1 
3906 1 17.719 25.2982 -137.079 1.03973e-09 1 
3907 1 19.2026 26.9264 -138.238 1.70294e-09 1 
3908 1 19.0377 26.9419 -135.755 4.11371e-09 1 
3909 1 20.1916 25.0656 -136.914 4.86599e-09 1 
3910 1 20.0268 25.081 -134.43 2.76801e-09 1 
3911 1 21.5103 26.7093 -135.589 6.73718e-09 1 
3912 1 21.3455 26.7247 -133.106 9.14709e-09 1 
3913 1 22.4994 24.8484 -134.265 3.70845e-09 1 
3914 1 22.3346 24.8639 -131.781 5.31021e-09 1 
3915 1 23.8181 26.4921 -132.94 3.41905e-09 1 
3916 1 23.6533 26.5076 -130.457 2.91682e-09 1 
3917 1 24.8072 24.6313 -131.616 4.19393e-09 1 
3919 1 26.1259 26.275 -130.291 2.63239e-09 1 
3939 4 12.4442 27.5622 -148.669 24.7808 5 
3940 4 13.4332 25.7014 -147.345 6.1952 5 
3941 4 14.9168 27.3296 -148.504 24.7808 5 
3942 4 14.7519 27.3451 -146.02 1e-13 1 
3943 4 15.9058 25.4688 -147.179 6.1952 5 
3944 4 15.741 25.4843 -144.696 1.6e-13 1 
3945 4 17.2245 27.1125 -145.855 6e-14 1 
3946 4 17.0597 27.128 -143.371 7.8476e-09 1 
3947 4 18.2136 25.2517 -144.53 3.70065e-09 1 
3948 1 18.0487 25.2672 -142.047 6.56866e-08 1 
3949 4 19.5323 26.8954 -143.205 1.15744e-08 1 
3950 1 19.3674 26.9109 -140.722 1.07005e-08 1 
3951 1 20.5213 25.0346 -141.881 3.1195e-08 1 
3952 1 20.3565 25.0501 -139.397 3.3382e-09 1 
3953 1 21.84 26.6783 -140.556 1.0223e-08 1 
3954 1 21.6752 26.6938 -138.073 4.87819e-09 1 
3955 1 22.8291 24.8175 -139.232 5.51178e-09 1 
3956 1 22.6642 24.833 -136.748 3.65597e-09 1 
3957 1 24.1478 26.4612 -137.907 4.56665e-09 1 
3958 1 23.9829 26.4767 -135.424 2.42348e-09 1 
3959 1 25.1368 24.6004 -136.583 5.9585e-09 1 
3960 1 24.972 24.6158 -134.099 7.0283e-09 1 
3961 1 26.4555 26.2441 -135.258 8.21404e-09 1 
3962 1 26.2907 26.2596 -132.775 4.68608e-09 1 
3963 1 27.4446 24.3832 -133.934 3.68745e-09 1 
3964 1 27.2798 24.3987 -131.45 2.91633e-09 1 
3965 1 28.7633 26.0269 -132.609 2.70973e-09 1 
3966 1 28.5985 26.0424 -130.126 6.48646e-09 1 
3967 1 29.7523 24.1661 -131.285 3.16466e-09 1 
3969 1 31.0711 25.8098 -129.96 8.8336e-09 1 
3981 4 17.3894 27.097 -148.338 24.7808 5 
3982 4 18.3784 25.2362 -147.013 6.1952 5 
3983 4 19.862 26.8644 -148.172 24.7808 5 
3984 4 19.6971 26.8799 -145.689 4e-14 1 
3985 4 20.851 25.0036 -146.848 6.1952 5 
3986 4 20.6862 25.0191 -144.364 2.08941e-09 1 
3987 4 22.1697 26.6473 -145.523 1.1e-13 1 
3988 4 22.0049 26.6628 -143.04 5.05638e-09 1 
3989 4 23.1587 24.7865 -144.199 5.07001e-10 1 
3990 1 22.9939 24.802 -141.715 4.98342e-09 1 
3991 4 24.4775 26.4302 -142.874 2.14353e-09 1 
3992 1 24.3126 26.4457 -140.391 8.71194e-09 1 
3993 1 25.4665 24.5694 -141.55 3.08567e-09 1 
3994 1 25.3016 24.5849 -139.066 2.66706e-09 1 
3995 1 26.7852 26.2131 -140.225 1.08609e-08 1 
3996 1 26.6203 26.2286 -137.742 9.46781e-09 1 
3997 1 27.7742 24.3523 -138.901 3.5243e-09 1 
3998 1 27.6094 24.3678 -136.417 5.12471e-09 1 
3999 1 29.0929 25.996 -137.576 1.71883e-09 1 
4000 1 28.9281 26.0115 -135.093 3.03992e-09 1 
4001 1 30.082 24.1351 -136.252 3.52911e-09 1 
4002 1 29.9171 24.1506 -133.768 3.38849e-09 1 
4003 1 31.4007 25.7788 -134.927 2.81725e-09 1 
4004 1 31.2359 25.7943 -132.444 5.20926e-09 1 
4005 1 32.3897 23.918 -133.603 2.91432e-09 1 
4006 1 32.2249 23.9335 -131.119 5.90121e-09 1 
4007 1 33.7085 25.5617 -132.278 5.39887e-09 1 
4008 1 33.5437 25.5772 -129.794 5.54853e-09 1 
4009 1 34.6975 23.7009 -130.953 2.42358e-09 1 
4011 1 36.0163 25.3446 -129.629 2.81695e-09 1 
4015 4 22.3345 26.6318 -148.007 12.3904 5 
4016 4 23.4884 24.7555 -149.166 30.976 5 
4017 4 23.3236 24.771 -146.682 4e-14 1 
4018 4 24.8071 26.3992 -147.841 6.1952 5 
4019 4 24.6423 26.4147 -145.358 7e-14 1 
4020 4 25.7962 24.5384 -146.517 7e-14 1 
4021 4 25.6313 24.5539 -144.033 8.21729e-11 1 
4022 4 27.1149 26.1821 -145.192 8e-14 1 
4023 4 26.95 26.1976 -142.709 1.48652e-09 1 
4024 4 28.1039 24.3213 -143.868 3.30614e-10 1 
4025 1 27.9391 24.3368 -141.384 2.72184e-09 1 
4026 4 29.4226 25.965 -142.543 1.22836e-09 1 
4027 1 29.2578 25.9805 -140.06 2.3248e-09 1 
4028 1 30.4116 24.1042 -141.219 2.92901e-09 1 
4029 1 30.2468 24.1197 -138.735 1.52335e-09 1 
4030 1 31.7304 25.7479 -139.894 1.86842e-09 1 
4031 1 31.5655 25.7634 -137.411 2.03259e-09 1 
4032 1 32.7194 23.8871 -138.57 1.35727e-09 1 
4033 1 32.5546 23.9025 -136.086 3.76866e-09 1 
4034 1 34.0381 25.5308 -137.245 2.42366e-09 1 
4035 1 33.8733 25.5462 -134.762 3.19996e-09 1 
4036 1 35.0272 23.6699 -135.92 3.94103e-09 1 
4037 1 34.8623 23.6854 -133.437 6.73067e-09 1 
4038 1 36.3459 25.3136 -134.596 2.8252e-09 1 
4039 1 36.181 25.3291 -132.112 5.88494e-09 1 
4040 1 37.3349 23.4528 -133.271 2.83012e-09 1 
4041 1 37.1701 23.4683 -130.788 4.46714e-09 1 
4042 4 25.961 24.5229 -149 24.7808 5 
4043 4 27.2797 26.1666 -147.676 6.1952 5 
4044 4 28.4336 24.2903 -148.835 24.7808 5 
4045 4 28.2688 24.3058 -146.351 1e-13 1 
4046 4 29.7523 25.934 -147.51 6.1952 5 
4047 4 29.5875 25.9495 -145.027 4e-14 1 
4048 4 30.7413 24.0732 -146.186 5e-14 1 
4049 4 30.5765 24.0887 -143.702 3.66959e-10 1 
4050 4 32.06 25.7169 -144.861 8e-14 1 
4051 4 31.8952 25.7324 -142.378 1.44082e-09 1 
4052 4 33.0491 23.8561 -143.537 2.18997e-10 1 
4053 1 32.8842 23.8716 -141.053 1.12971e-09 1 
4054 4 34.3678 25.4998 -142.212 5.13744e-09 1 
4055 1 34.2029 25.5153 -139.729 3.83133e-09 1 
4056 1 35.3568 23.639 -140.888 4.47401e-09 1 
4057 1 35.192 23.6545 -138.404 4.10446e-09 1 
4058 1 36.6755 25.2827 -139.563 7.8538e-09 1 
4059 1 36.5107 25.2982 -137.079 1.03977e-09 1 
4060 4 30.9062 24.0577 -148.669 24.7808 5 
4061 4 32.2249 25.7014 -147.345 6.1952 5 
4062 4 33.3788 23.8251 -148.504 24.7808 5 
4063 4 33.2139 23.8406 -146.02 8e-14 1 
4064 4 34.6975 25.4688 -147.179 6.1952 5 
4065 4 34.5326 25.4843 -144.696 1.4e-13 1 
4066 4 35.6865 23.608 -145.855 6.2809e-14 1 
4067 4 35.5217 23.6235 -143.371 7.63862e-09 1 
4068 4 37.0052 25.2517 -144.53 3.70038e-09 1 
4069 1 36.8404 25.2672 -142.047 6.56997e-08 1 
4070 4 35.8513 23.5925 -148.338 24.7808 5 
4071 4 37.1701 25.2362 -147.013 6.1952 5 
5444 1 38.6536 25.0965 -131.947 1.37713e-08 1 
5446 1 39.6427 23.2357 -130.622 4.43207e-09 1 
5508 1 37.6646 23.4219 -138.238 3.30895e-09 1 
5509 1 37.4997 23.4373 -135.755 3.13918e-09 1 
5510 1 38.9833 25.0656 -136.914 4.86658e-09 1 
5511 1 38.8185 25.081 -134.43 2.76824e-09 1 
5512 1 2.38903 23.2047 -135.589 2.14789e-09 1 
5513 1 2.2242 23.2202 -133.106 5.37e-09 1 
5514 1 3.70775 24.8484 -134.265 3.70857e-09 1 
5515 1 3.54292 24.8639 -131.781 5.3102e-09 1 
5516 1 4.6968 22.9876 -132.94 2.77897e-09 1 
5517 1 4.53199 23.0031 -130.457 4.57359e-09 1 
5518 1 6.01552 24.6313 -131.616 4.19411e-09 1 
5520 1 7.00458 22.7705 -130.291 4.39689e-09 1 
5574 4 37.9943 23.3909 -143.205 1.17012e-08 1 
5575 1 37.8294 23.4064 -140.722 8.70505e-09 1 
5576 1 39.313 25.0346 -141.881 3.11672e-08 1 
5577 1 39.1481 25.0501 -139.397 3.33802e-09 1 
5578 1 2.71868 23.1738 -140.556 3.84289e-09 1 
5579 1 2.55386 23.1893 -138.073 2.29191e-09 1 
5580 1 4.0374 24.8175 -139.232 5.51291e-09 1 
5581 1 3.87257 24.833 -136.748 3.65653e-09 1 
5582 1 5.02644 22.9566 -137.907 1.40673e-09 1 
5583 1 4.86162 22.9721 -135.424 4.26143e-09 1 
5584 1 6.34516 24.6004 -136.583 5.95845e-09 1 
5585 1 6.18033 24.6158 -134.099 7.02838e-09 1 
5586 1 7.33419 22.7395 -135.258 1.65556e-09 1 
5587 1 7.16937 22.755 -132.775 4.38351e-09 1 
5588 1 8.6529 24.3832 -133.934 3.68736e-09 1 
5589 1 8.48811 24.3987 -131.45 2.91622e-09 1 
5590 1 9.64195 22.5224 -132.609 3.54577e-09 1 
5591 1 9.47717 22.5379 -130.126 2.88804e-09 1 
5592 1 10.9607 24.1661 -131.285 3.16466e-09 1 
5594 1 11.9498 22.3053 -129.96 3.24531e-09 1 
5640 4 38.3239 23.3599 -148.172 24.7808 5 
5641 4 38.1591 23.3754 -145.689 3.1045e-14 1 
5642 4 39.6426 25.0036 -146.848 6.1952 5 
5643 4 39.4778 25.0191 -144.364 2.08873e-09 1 
5644 4 3.04837 23.1428 -145.523 1e-13 1 
5645 4 2.88353 23.1583 -143.04 6.21874e-09 1 
5646 4 4.36708 24.7865 -144.199 5.08391e-10 1 
5647 1 4.20223 24.802 -141.715 4.98982e-09 1 
5648 4 5.35612 22.9257 -142.874 2.79488e-09 1 
5649 1 5.19127 22.9412 -140.391 1.82938e-09 1 
5650 1 6.67482 24.5694 -141.55 3.08244e-09 1 
5651 1 6.50998 24.5849 -139.066 2.66713e-09 1 
5652 1 7.66385 22.7085 -140.225 4.9726e-09 1 
5653 1 7.49901 22.724 -137.742 8.09444e-09 1 
5654 1 8.98256 24.3523 -138.901 3.52444e-09 1 
5655 1 8.81772 24.3678 -136.417 5.12429e-09 1 
5656 1 9.9716 22.4914 -137.576 3.15742e-09 1 
5657 1 9.80676 22.5069 -135.093 3.97221e-09 1 
5658 1 11.2903 24.1351 -136.252 3.52888e-09 1 
5659 1 11.1255 24.1506 -133.768 3.38876e-09 1 
5660 1 12.2794 22.2743 -134.927 3.68163e-09 1 
5661 1 12.1145 22.2898 -132.444 4.28849e-09 1 
5662 1 13.5981 23.918 -133.603 2.91419e-09 1 
5663 1 13.4333 23.9335 -131.119 5.90106e-09 1 
5664 1 14.5871 22.0572 -132.278 6.16811e-09 1 
5665 1 14.4224 22.0727 -129.794 5.58607e-09 1 
5666 1 15.9059 23.7009 -130.953 2.42359e-09 1 
5668 1 16.8949 21.8401 -129.629 1.9588e-09 1 
5704 4 3.21321 23.1273 -148.007 12.3904 5 
5705 4 4.69676 24.7555 -149.166 30.976 5 
5706 4 4.53192 24.771 -146.682 9e-14 1 
5707 4 5.68579 22.8947 -147.841 6.1952 5 
5708 4 5.52095 22.9102 -145.358 8e-14 1 
5709 4 7.00451 24.5384 -146.517 6e-14 1 
5710 4 6.83967 24.5539 -144.033 8.28427e-11 1 
5711 4 7.99354 22.6776 -145.192 5e-14 1 
5712 4 7.8287 22.6931 -142.709 3.11353e-09 1 
5713 4 9.31225 24.3213 -143.868 3.28946e-10 1 
5714 1 9.1474 24.3368 -141.384 2.72074e-09 1 
5715 4 10.3013 22.4605 -142.543 2.43393e-09 1 
5716 1 10.1364 22.476 -140.06 2.40505e-09 1 
5717 1 11.62 24.1042 -141.219 2.93077e-09 1 
5718 1 11.4551 24.1197 -138.735 1.52261e-09 1 
5719 1 12.609 22.2434 -139.894 1.9505e-09 1 
5720 1 12.4442 22.2588 -137.411 5.3333e-09 1 
5721 1 13.9277 23.8871 -138.57 1.35757e-09 1 
5722 1 13.7629 23.9025 -136.086 3.7681e-09 1 
5723 1 14.9168 22.0262 -137.245 2.11959e-09 1 
5724 1 14.7519 22.0417 -134.762 2.83402e-09 1 
5725 1 16.2355 23.6699 -135.92 3.94082e-09 1 
5726 1 16.0707 23.6854 -133.437 6.73059e-09 1 
5727 1 17.2245 21.8091 -134.596 2.66811e-09 1 
5728 1 17.0597 21.8246 -132.112 7.45919e-09 1 
5729 1 18.5433 23.4528 -133.271 2.83006e-09 1 
5730 1 18.3784 23.4683 -130.788 4.46701e-09 1 
5731 1 19.5323 21.592 -131.947 3.04202e-09 1 
5733 1 20.851 23.2357 -130.622 4.43222e-09 1 
5763 4 7.16935 24.5229 -149 24.7808 5 
5764 4 8.15838 22.6621 -147.676 6.1952 5 
5765 4 9.64193 24.2903 -148.835 24.7808 5 
5766 4 9.47709 24.3058 -146.351 9e-14 1 
5767 4 10.631 22.4295 -147.51 6.1952 5 
5768 4 10.4661 22.445 -145.027 7e-14 1 
5769 4 11.9497 24.0732 -146.186 7e-14 1 
5770 4 11.7848 24.0887 -143.702 3.69306e-10 1 
5771 4 12.9387 22.2124 -144.861 5e-14 1 
5772 4 12.7739 22.2279 -142.378 1.47744e-09 1 
5773 4 14.2574 23.8561 -143.537 2.19515e-10 1 
5774 1 14.0926 23.8716 -141.053 1.13355e-09 1 
5775 4 15.2465 21.9953 -142.212 5.01221e-09 1 
5776 1 15.0816 22.0108 -139.729 3.34887e-09 1 
5777 1 16.5652 23.639 -140.888 4.47444e-09 1 
5778 1 16.4003 23.6545 -138.404 4.10499e-09 1 
5779 1 17.5542 21.7782 -139.563 5.19048e-09 1 
5780 1 17.3894 21.7936 -137.079 3.85399e-09 1 
5781 1 18.8729 23.4219 -138.238 3.3091e-09 1 
5782 1 18.7081 23.4373 -135.755 3.13918e-09 1 
5783 1 19.862 21.561 -136.914 2.82926e-09 1 
5784 1 19.6971 21.5765 -134.43 1.37907e-09 1 
5785 1 21.1807 23.2047 -135.589 2.14798e-09 1 
5786 1 21.0159 23.2202 -133.106 5.37005e-09 1 
5787 1 22.1697 21.3439 -134.265 5.3283e-09 1 
5788 1 22.0049 21.3594 -131.781 6.61158e-09 1 
5789 1 23.4885 22.9876 -132.94 2.77898e-09 1 
5790 1 23.3236 23.0031 -130.457 4.57364e-09 1 
5791 1 24.4775 21.1268 -131.616 3.7757e-09 1 
5793 1 25.7962 22.7705 -130.291 4.39691e-09 1 
5815 4 12.1145 24.0577 -148.669 24.7808 5 
5816 4 13.1036 22.1969 -147.345 6.1952 5 
5817 4 14.5871 23.8251 -148.504 24.7808 5 
5818 4 14.4223 23.8406 -146.02 8e-14 1 
5819 4 15.5761 21.9643 -147.179 6.1952 5 
5820 4 15.4113 21.9798 -144.696 1.5e-13 1 
5821 4 16.8949 23.608 -145.855 8.00001e-14 1 
5822 4 16.73 23.6235 -143.371 7.64017e-09 1 
5823 4 17.8839 21.7472 -144.53 3.5532e-09 1 
5824 1 17.719 21.7627 -142.047 6.31851e-08 1 
5825 4 19.2026 23.3909 -143.205 1.16991e-08 1 
5826 1 19.0378 23.4064 -140.722 8.70538e-09 1 
5827 1 20.1916 21.5301 -141.881 2.83813e-08 1 
5828 1 20.0268 21.5455 -139.397 3.39508e-09 1 
5829 1 21.5103 23.1738 -140.556 3.84957e-09 1 