ITEM: TIMESTEP
0
ITEM: NUMBER OF ATOMS
30456
ITEM: BOX BOUNDS xy xz yz pp pp ss
0 40.2579 3.33937
0 64.7572 3.52489
-149.665 166.171 33.2537
ITEM: ATOMS id type x y z c_csym c_cna 
272 1 20.6317 31.89 -135.455 6.54828e-09 1 
273 1 22.4873 31.6933 -132.47 1.49261e-08 1 
274 1 21.9311 31.7522 -130.045 1.79265e-09 1 
286 1 21.7443 31.772 -140.306 1.75667e-09 1 
287 1 21.1879 31.831 -137.88 1.34813e-09 1 
288 1 23.5998 31.5753 -137.321 1.66258e-09 1 
289 1 23.0435 31.6343 -134.895 3.24748e-09 1 
290 1 25.4553 31.3786 -134.336 4.82483e-09 1 
291 1 24.8991 31.4376 -131.91 1.0925e-08 1 
292 1 27.311 31.1819 -131.351 4.487e-09 1 
300 4 17.6626 0.347164 -148.141 6.1952 5 
301 4 20.4454 31.9097 -145.716 1.08942e-13 1 
302 4 22.8571 31.654 -145.156 8.9828e-14 1 
303 4 22.3006 31.713 -142.731 1.19827e-07 1 
304 1 24.7124 31.4574 -142.171 5.1014e-08 1 
305 1 24.1561 31.5163 -139.746 2.11565e-09 1 
306 1 26.5679 31.2607 -139.186 1.20638e-09 1 
307 1 26.0116 31.3197 -136.761 2.60192e-09 1 
308 1 28.4234 31.064 -136.201 5.53227e-09 1 
309 1 27.8672 31.123 -133.776 4.33413e-09 1 
310 1 30.279 30.8673 -133.216 3.58883e-09 1 
311 1 29.7228 30.9263 -130.791 2.86309e-09 1 
312 1 32.1347 30.6707 -130.231 2.51865e-09 1 
314 4 23.4137 31.595 -147.581 6.1952 5 
315 4 25.8255 31.3394 -147.022 1.15228e-13 1 
316 4 25.2689 31.3984 -144.597 3.92968e-09 1 
317 4 27.6807 31.1427 -144.037 1.18469e-08 1 
318 1 27.1242 31.2017 -141.612 2.78926e-08 1 
319 1 29.536 30.9461 -141.052 1.06414e-08 1 
320 1 28.9797 31.005 -138.627 1.64284e-09 1 
321 1 31.3915 30.7494 -138.067 1.52926e-09 1 
322 1 30.8352 30.8084 -135.642 1.17839e-08 1 
323 1 33.2471 30.5527 -135.082 9.61904e-09 1 
324 1 32.6909 30.6117 -132.657 2.69542e-09 1 
325 4 26.382 31.2804 -149.447 30.976 5 
326 4 28.7938 31.0247 -148.887 24.7808 5 
327 4 28.2372 31.0837 -146.462 8.7228e-14 1 
328 4 30.649 30.8281 -145.902 1.08828e-13 1 
329 4 30.0924 30.8871 -143.477 3.41473e-08 1 
330 4 32.5042 30.6314 -142.917 8.81917e-08 1 
331 1 31.9478 30.6904 -140.492 3.72758e-09 1 
332 4 31.2055 30.7691 -148.328 18.5856 5 
333 4 33.0608 30.5724 -145.343 1.2628e-14 1 
1440 1 35.1027 30.356 -132.097 3.33425e-09 1 
1508 1 34.3597 30.4348 -139.933 3.31453e-09 1 
1509 1 33.8034 30.4937 -137.507 1.1419e-09 1 
1510 1 36.2152 30.2381 -136.948 2.3709e-09 1 
1511 1 35.6589 30.2971 -134.522 1.08489e-08 1 
1512 1 3.93484 31.89 -135.455 6.60479e-09 1 
1513 1 4.67711 30.0414 -133.963 8.00209e-09 1 
1514 1 4.12092 30.1004 -131.537 6.39913e-09 1 
1515 1 5.79044 31.6933 -132.47 1.48142e-08 1 
1516 1 5.2343 31.7522 -130.045 1.72234e-09 1 
1517 1 6.53278 29.8447 -130.978 3.42261e-09 1 
1576 4 33.6173 30.5134 -147.768 6.1952 5 
1577 4 35.4725 30.3168 -144.783 2.89963e-09 1 
1578 1 34.916 30.3758 -142.358 3.77303e-08 1 
1579 1 3.93416 30.1201 -141.798 2.45932e-08 1 
1580 1 3.37783 30.1791 -139.373 5.09093e-09 1 
1581 1 5.04742 31.772 -140.306 1.72798e-09 1 
1582 1 4.49112 31.831 -137.88 1.29325e-09 1 
1583 1 5.78965 29.9235 -138.813 4.33265e-09 1 
1584 1 5.23337 29.9824 -136.388 1.64893e-09 1 
1585 1 6.90295 31.5753 -137.321 1.65103e-09 1 
1586 1 6.34667 31.6343 -134.895 3.19204e-09 1 
1587 1 7.6452 29.7268 -135.828 3.49553e-09 1 
1588 1 7.08895 29.7857 -133.403 8.9255e-09 1 
1589 1 8.75851 31.3786 -134.336 4.8717e-09 1 
1590 1 8.2023 31.4376 -131.91 1.09492e-08 1 
1591 1 9.5008 29.5301 -132.843 7.71261e-09 1 
1592 1 8.94463 29.5891 -130.418 4.52714e-09 1 
1593 1 10.6142 31.1819 -131.351 4.43287e-09 1 
1644 4 36.5856 30.1988 -149.634 30.976 5 
1645 4 36.0291 30.2578 -147.208 1.242e-13 1 
1646 4 0.965742 0.347164 -148.141 6.1952 5 
1647 4 3.74855 31.9097 -145.716 1.08314e-13 1 
1648 4 5.04719 30.0022 -146.649 6e-14 1 
1649 4 4.49063 30.0611 -144.223 9.24162e-09 1 
1650 4 6.16031 31.654 -145.156 1.08828e-13 1 
1651 4 5.60375 31.713 -142.731 1.19637e-07 1 
1652 4 6.90239 29.8055 -143.664 2.83591e-08 1 
1653 1 6.34597 29.8645 -141.238 1.27145e-08 1 
1654 1 8.01557 31.4574 -142.171 5.09702e-08 1 
1655 1 7.45925 31.5163 -139.746 2.09281e-09 1 
1656 1 8.7578 29.6088 -140.679 2.17681e-09 1 
1657 1 8.20147 29.6678 -138.253 6.99564e-09 1 
1658 1 9.87107 31.2607 -139.186 1.22186e-09 1 
1659 1 9.31477 31.3197 -136.761 2.61527e-09 1 
1660 1 10.6133 29.4121 -137.694 3.99274e-09 1 
1661 1 10.057 29.4711 -135.268 6.86819e-09 1 
1662 1 11.7266 31.064 -136.201 5.53262e-09 1 
1663 1 11.1704 31.123 -133.776 4.32073e-09 1 
1664 1 12.4689 29.2155 -134.709 6.67478e-09 1 
1665 1 11.9127 29.2744 -132.283 2.18572e-09 1 
1666 1 13.5822 30.8673 -133.216 3.6691e-09 1 
1667 1 13.026 30.9263 -130.791 2.91332e-09 1 
1668 1 14.3245 29.0188 -131.724 2.87221e-09 1 
1670 1 15.4379 30.6707 -130.231 2.58129e-09 1 
1710 4 5.60375 29.9432 -149.074 24.7808 5 
1711 4 6.71687 31.595 -147.581 6.1952 5 
1712 4 8.01551 29.6875 -148.514 12.3904 5 
1713 4 7.45895 29.7465 -146.089 1.4e-13 1 
1714 4 9.12863 31.3394 -147.022 1.71628e-13 1 
1715 4 8.57207 31.3984 -144.597 3.92678e-09 1 
1716 4 9.87072 29.4909 -145.529 1.1e-13 1 
1717 4 9.31415 29.5499 -143.104 7.39119e-08 1 
1718 4 10.9838 31.1427 -144.037 1.18528e-08 1 
1719 1 10.4274 31.2017 -141.612 2.77681e-08 1 
1720 4 11.7259 29.2942 -142.544 1.52429e-07 1 
1721 1 11.1696 29.3532 -140.119 4.62458e-09 1 
1722 1 12.8392 30.9461 -141.052 1.06776e-08 1 
1723 1 12.2829 31.005 -138.627 1.59788e-09 1 
1724 1 13.5814 29.0975 -139.559 2.0876e-09 1 
1725 1 13.0251 29.1565 -137.134 3.00526e-09 1 
1726 1 14.6947 30.7494 -138.067 1.53538e-09 1 
1727 1 14.1384 30.8084 -135.642 1.18728e-08 1 
1728 1 15.437 28.9009 -136.574 1.81194e-09 1 
1729 1 14.8807 28.9598 -134.149 6.91564e-09 1 
1730 1 16.5503 30.5527 -135.082 9.52476e-09 1 
1731 1 15.9941 30.6117 -132.657 2.70884e-09 1 
1732 1 17.2926 28.7042 -133.589 6.1107e-09 1 
1733 1 16.7364 28.7632 -131.164 1.42556e-09 1 
1734 1 18.4059 30.356 -132.097 3.30902e-09 1 
1736 1 19.1482 28.5075 -130.604 9.24561e-10 1 
1768 4 9.6852 31.2804 -149.447 30.976 5 
1769 4 10.4273 29.4319 -147.955 6.1952 5 
1770 4 12.097 31.0247 -148.887 24.7808 5 
1771 4 11.5404 31.0837 -146.462 9.1428e-14 1 
1772 4 12.839 29.1762 -147.395 6.1952 5 
1773 4 12.2825 29.2352 -144.97 1.5e-13 1 
1774 4 13.9522 30.8281 -145.902 1.03428e-13 1 
1775 4 13.3956 30.8871 -143.477 3.42397e-08 1 
1776 4 14.6942 28.9796 -144.41 4.36343e-09 1 
1777 1 14.1377 29.0386 -141.985 6.17918e-08 1 
1778 4 15.8074 30.6314 -142.917 8.80687e-08 1 
1779 1 15.251 30.6904 -140.492 3.73575e-09 1 
1780 1 16.5496 28.7829 -141.425 2.3689e-08 1 
1781 1 15.9933 28.8419 -139 1.08809e-09 1 
1782 1 17.6628 30.4348 -139.933 3.33421e-09 1 
1783 1 17.1065 30.4937 -137.507 1.11921e-09 1 
1784 1 18.4051 28.5862 -138.44 5.76386e-10 1 
1785 1 17.8488 28.6452 -136.015 5.99721e-09 1 
1786 1 19.5184 30.2381 -136.948 2.3876e-09 1 
1787 1 18.9621 30.2971 -134.522 1.08948e-08 1 
1788 1 20.2606 28.3896 -135.455 6.48665e-09 1 
1789 1 19.7044 28.4485 -133.03 9.64989e-09 1 
1790 1 21.3739 30.0414 -133.963 8.0115e-09 1 
1791 1 20.8177 30.1004 -131.537 6.41199e-09 1 
1792 1 22.1162 28.1929 -132.47 1.48036e-08 1 
1793 1 21.5601 28.2518 -130.045 1.73368e-09 1 
1794 1 23.2296 29.8447 -130.978 3.48609e-09 1 
1818 4 14.5087 30.7691 -148.328 18.5856 5 
1819 4 15.8074 28.8616 -149.261 30.976 5 
1820 4 15.2508 28.9206 -146.835 9e-14 1 
1821 4 16.9205 30.5134 -147.768 6.1952 5 
1822 4 16.3639 30.5724 -145.343 9.5028e-14 1 
1823 4 17.6626 28.6649 -146.276 1.3e-13 1 
1824 4 17.106 28.7239 -143.85 2.0068e-08 1 
1825 4 18.7757 30.3168 -144.783 2.90844e-09 1 
1826 1 18.2192 30.3758 -142.358 3.77875e-08 1 
1827 4 19.5178 28.4683 -143.291 5.31714e-08 1 
1828 1 18.9614 28.5273 -140.865 1.29854e-08 1 
1829 1 20.631 30.1201 -141.798 2.46427e-08 1 
1830 1 20.0747 30.1791 -139.373 5.05706e-09 1 
1831 1 21.3732 28.2716 -140.306 1.76952e-09 1 
1832 1 20.8169 28.3306 -137.88 1.31934e-09 1 
1833 1 22.4865 29.9235 -138.813 4.40876e-09 1 
1834 1 21.9302 29.9824 -136.388 1.6371e-09 1 
1835 1 23.2287 28.0749 -137.321 1.69862e-09 1 
1836 1 22.6725 28.1339 -134.895 3.17294e-09 1 
1837 1 24.342 29.7268 -135.828 3.47221e-09 1 
1838 1 23.7858 29.7857 -133.403 8.91317e-09 1 
1839 1 25.0843 27.8782 -134.336 4.86155e-09 1 
1840 1 24.5281 27.9372 -131.91 1.09438e-08 1 
1841 1 26.1976 29.5301 -132.843 7.68586e-09 1 
1842 1 25.6415 29.5891 -130.418 4.56699e-09 1 
1843 1 26.9399 27.6816 -131.351 4.43622e-09 1 
1858 4 18.2191 28.6059 -148.701 12.3904 5 
1859 4 19.8888 30.1988 -149.634 30.976 5 
1860 4 19.3323 30.2578 -147.208 1.04714e-13 1 
1861 4 20.6309 28.3503 -148.141 6.1952 5 
1862 4 20.0743 28.4093 -145.716 1.4e-13 1 
1863 4 21.744 30.0022 -146.649 1e-13 1 
1864 4 21.1875 30.0611 -144.223 9.18912e-09 1 
1865 4 22.4861 28.1536 -145.156 3e-14 1 
1866 4 21.9295 28.2126 -142.731 1.19864e-07 1 
1867 4 23.5992 29.8055 -143.664 2.84329e-08 1 
1868 1 23.0428 29.8645 -141.238 1.26866e-08 1 
1869 1 24.3414 27.957 -142.171 5.10824e-08 1 
1870 1 23.785 28.0159 -139.746 2.09937e-09 1 
1871 1 25.4546 29.6088 -140.679 2.23372e-09 1 
1872 1 24.8983 29.6678 -138.253 7.03871e-09 1 
1873 1 26.1969 27.7603 -139.186 1.23019e-09 1 
1874 1 25.6406 27.8193 -136.761 2.58274e-09 1 
1875 1 27.3101 29.4121 -137.694 3.96432e-09 1 
1876 1 26.7539 29.4711 -135.268 6.81116e-09 1 
1877 1 28.0524 27.5636 -136.201 5.49758e-09 1 
1878 1 27.4961 27.6226 -133.776 4.29982e-09 1 
1879 1 29.1657 29.2155 -134.709 6.69429e-09 1 
1880 1 28.6095 29.2744 -132.283 2.17954e-09 1 
1881 1 29.908 27.3669 -133.216 3.62497e-09 1 
1882 1 29.3518 27.4259 -130.791 2.89599e-09 1 
1883 1 31.0213 29.0188 -131.724 2.84397e-09 1 
1885 1 31.7637 27.1703 -130.231 2.56679e-09 1 
1890 4 22.3006 29.9432 -149.074 24.7808 5 
1891 4 23.0427 28.0946 -147.581 6.1952 5 
1892 4 24.7123 29.6875 -148.514 12.3904 5 
1893 4 24.1558 29.7465 -146.089 7e-14 1 
1894 4 25.4544 27.839 -147.022 1.5e-13 1 
1895 4 24.8979 27.898 -144.597 3.9119e-09 1 
1896 4 26.5675 29.4909 -145.529 1.5e-13 1 
1897 4 26.011 29.5499 -143.104 7.37758e-08 1 
1898 4 27.3096 27.6423 -144.037 1.18775e-08 1 
1899 1 26.7532 27.7013 -141.612 2.77958e-08 1 
1900 4 28.4227 29.2942 -142.544 1.52203e-07 1 
1901 1 27.8665 29.3532 -140.119 4.64681e-09 1 
1902 1 29.165 27.4457 -141.052 1.06584e-08 1 
1903 1 28.6087 27.5046 -138.627 1.62979e-09 1 
1904 1 30.2783 29.0975 -139.559 2.08999e-09 1 
1905 1 29.722 29.1565 -137.134 3.01028e-09 1 
1906 1 31.0205 27.249 -138.067 1.56516e-09 1 
1907 1 30.4642 27.308 -135.642 1.19471e-08 1 
1908 1 32.1338 28.9009 -136.574 1.81423e-09 1 
1909 1 31.5775 28.9598 -134.149 6.97418e-09 1 
1910 1 32.876 27.0523 -135.082 9.49321e-09 1 
1911 1 32.3198 27.1113 -132.657 2.7016e-09 1 
1912 4 26.011 27.78 -149.447 30.976 5 
1913 4 27.1241 29.4319 -147.955 6.1952 5 
1914 4 28.4227 27.5243 -148.887 24.7808 5 
1915 4 27.8662 27.5833 -146.462 7e-14 1 
1916 4 29.5359 29.1762 -147.395 6.1952 5 
1917 4 28.9793 29.2352 -144.97 1.5e-13 1 
1918 4 30.2779 27.3277 -145.902 1e-13 1 
1919 4 29.7214 27.3867 -143.477 3.4178e-08 1 
1920 4 31.3911 28.9796 -144.41 4.35385e-09 1 
1921 1 30.8346 29.0386 -141.985 6.19736e-08 1 
1922 4 32.1332 27.131 -142.917 8.79808e-08 1 
1923 1 31.5768 27.19 -140.492 3.73304e-09 1 
1924 1 33.2464 28.7829 -141.425 2.3644e-08 1 
1925 1 32.6901 28.8419 -139 1.08741e-09 1 
1926 4 30.8345 27.2687 -148.328 18.5856 5 
1927 4 32.5042 28.8616 -149.261 30.976 5 
1928 4 31.9476 28.9206 -146.835 1.31962e-13 1 
1929 4 33.2463 27.0131 -147.768 6.1952 5 
1930 4 32.6897 27.0721 -145.343 8.5005e-14 1 
3108 1 33.9894 28.7042 -133.589 6.09736e-09 1 
3109 1 33.4332 28.7632 -131.164 1.43449e-09 1 
3110 1 34.7317 26.8557 -132.097 3.34044e-09 1 
3112 1 35.8451 28.5075 -130.604 9.22836e-10 1 
3180 1 33.9886 26.9344 -139.933 3.3718e-09 1 
3181 1 33.4323 26.9934 -137.507 1.13809e-09 1 
3182 1 35.1019 28.5862 -138.44 5.7664e-10 1 
3183 1 34.5456 28.6452 -136.015 5.94617e-09 1 
3184 1 35.8441 26.7377 -136.948 2.39833e-09 1 
3185 1 35.2879 26.7967 -134.522 1.07706e-08 1 
3186 1 3.56379 28.3896 -135.455 6.54427e-09 1 
3187 1 36.4012 28.4485 -133.03 9.62683e-09 1 
3188 1 4.30607 26.541 -133.963 8.01547e-09 1 
3189 1 3.74988 26.6 -131.537 6.32967e-09 1 
3190 1 5.4194 28.1929 -132.47 1.47764e-08 1 
3191 1 4.86326 28.2518 -130.045 1.76449e-09 1 
3192 1 6.16174 26.3443 -130.978 3.46265e-09 1 
3252 4 34.3594 28.6649 -146.276 1.03924e-13 1 
3253 4 33.8028 28.7239 -143.85 2.00439e-08 1 
3254 4 35.1015 26.8164 -144.783 2.90444e-09 1 
3255 1 34.545 26.8754 -142.358 3.76377e-08 1 
3256 4 36.2146 28.4683 -143.291 5.33625e-08 1 
3257 1 35.6582 28.5273 -140.865 1.28744e-08 1 
3258 1 3.56312 26.6197 -141.798 2.45773e-08 1 
3259 1 3.00679 26.6787 -139.373 4.98043e-09 1 
3260 1 4.67638 28.2716 -140.306 1.78225e-09 1 
3261 1 4.12008 28.3306 -137.88 1.33081e-09 1 
3262 1 5.41861 26.4231 -138.813 4.36673e-09 1 
3263 1 4.86233 26.482 -136.388 1.64835e-09 1 
3264 1 6.5319 28.0749 -137.321 1.652e-09 1 
3265 1 5.97563 28.1339 -134.895 3.22831e-09 1 
3266 1 7.27416 26.2264 -135.828 3.46293e-09 1 
3267 1 6.71791 26.2854 -133.403 8.88472e-09 1 
3268 1 8.38747 27.8782 -134.336 4.85901e-09 1 
3269 1 7.83126 27.9372 -131.91 1.09427e-08 1 
3270 1 9.12976 26.0297 -132.843 7.63841e-09 1 
3271 1 8.57359 26.0887 -130.418 4.58376e-09 1 
3272 1 10.2431 27.6816 -131.351 4.44892e-09 1 
3324 4 34.916 28.6059 -148.701 18.5856 5 
3325 4 36.2146 26.6984 -149.634 30.976 5 
3326 4 35.658 26.7574 -147.208 1.01881e-13 1 
3327 4 3.93407 28.3503 -148.141 6.1952 5 
3328 4 3.37751 28.4093 -145.716 1.2e-13 1 
3329 4 4.67615 26.5018 -146.649 7e-14 1 
3330 4 4.11959 26.5608 -144.223 9.24753e-09 1 
3331 4 5.78927 28.1536 -145.156 9e-14 1 
3332 4 5.23271 28.2126 -142.731 1.19706e-07 1 
3333 4 6.53135 26.3051 -143.664 2.8384e-08 1 
3334 1 5.97493 26.3641 -141.238 1.26853e-08 1 
3335 1 7.64453 27.957 -142.171 5.11186e-08 1 
3336 1 7.08821 28.0159 -139.746 2.09776e-09 1 
3337 1 8.38676 26.1084 -140.679 2.19291e-09 1 
3338 1 7.83043 26.1674 -138.253 6.96799e-09 1 
3339 1 9.50003 27.7603 -139.186 1.19907e-09 1 
3340 1 8.94373 27.8193 -136.761 2.62286e-09 1 
3341 1 10.2423 25.9118 -137.694 3.97602e-09 1 
3342 1 9.68598 25.9707 -135.268 6.80174e-09 1 
3343 1 11.3556 27.5636 -136.201 5.46205e-09 1 
3344 1 10.7993 27.6226 -133.776 4.32392e-09 1 
3345 1 12.0978 25.7151 -134.709 6.74053e-09 1 
3346 1 11.5416 25.774 -132.283 2.18465e-09 1 
3347 1 13.2112 27.3669 -133.216 3.67803e-09 1 
3348 1 12.655 27.4259 -130.791 2.92914e-09 1 
3349 1 13.9535 25.5184 -131.724 2.89307e-09 1 
3351 1 15.0668 27.1703 -130.231 2.56464e-09 1 
3392 4 5.23271 26.4428 -149.074 24.7808 5 
3393 4 6.34583 28.0946 -147.581 6.1952 5 
3394 4 7.64447 26.1871 -148.514 12.3904 5 
3395 4 7.08791 26.2461 -146.089 1e-13 1 
3396 4 8.75759 27.839 -147.022 1.5e-13 1 
3397 4 8.20103 27.898 -144.597 3.91291e-09 1 
3398 4 9.49968 25.9905 -145.529 1.6e-13 1 
3399 4 8.94311 26.0495 -143.104 7.36779e-08 1 
3400 4 10.6128 27.6423 -144.037 1.18261e-08 1 
3401 1 10.0563 27.7013 -141.612 2.78518e-08 1 
3402 4 11.3549 25.7938 -142.544 1.52444e-07 1 
3403 1 10.7986 25.8528 -140.119 4.60717e-09 1 
3404 1 12.4682 27.4457 -141.052 1.06248e-08 1 
3405 1 11.9118 27.5046 -138.627 1.67042e-09 1 
3406 1 13.2104 25.5971 -139.559 2.04051e-09 1 
3407 1 12.6541 25.6561 -137.134 2.96849e-09 1 
3408 1 14.3237 27.249 -138.067 1.56345e-09 1 
3409 1 13.7674 27.308 -135.642 1.17792e-08 1 
3410 1 15.0659 25.4005 -136.574 1.82628e-09 1 
3411 1 14.5097 25.4594 -134.149 6.91269e-09 1 
3412 1 16.1792 27.0523 -135.082 9.60082e-09 1 
3413 1 15.623 27.1113 -132.657 2.72565e-09 1 
3414 1 16.9215 25.2038 -133.589 6.10928e-09 1 
3415 1 16.3653 25.2628 -131.164 1.42325e-09 1 
3416 1 18.0349 26.8557 -132.097 3.36651e-09 1 
3418 1 18.7772 25.0071 -130.604 9.28883e-10 1 
3451 4 9.31415 27.78 -149.447 30.976 5 
3452 4 10.0562 25.9315 -147.955 6.1952 5 
3453 4 11.7259 27.5243 -148.887 24.7808 5 
3454 4 11.1694 27.5833 -146.462 1e-13 1 
3455 4 12.468 25.6758 -147.395 6.1952 5 
3456 4 11.9114 25.7348 -144.97 1e-13 1 
3457 4 13.5811 27.3277 -145.902 6e-14 1 
3458 4 13.0246 27.3867 -143.477 3.42367e-08 1 
3459 4 14.3232 25.4792 -144.41 4.33245e-09 1 
3460 1 13.7667 25.5382 -141.985 6.20539e-08 1 
3461 4 15.4363 27.131 -142.917 8.808e-08 1 
3462 1 14.88 27.19 -140.492 3.69381e-09 1 
3463 1 16.1785 25.2825 -141.425 2.38041e-08 1 
3464 1 15.6222 25.3415 -139 1.06817e-09 1 
3465 1 17.2918 26.9344 -139.933 3.33007e-09 1 
3466 1 16.7355 26.9934 -137.507 1.14221e-09 1 
3467 1 18.034 25.0858 -138.44 5.73822e-10 1 
3468 1 17.4777 25.1448 -136.015 5.9919e-09 1 
3469 1 19.1473 26.7377 -136.948 2.38909e-09 1 
3470 1 18.5911 26.7967 -134.522 1.07957e-08 1 
3471 1 19.8896 24.8892 -135.455 6.5302e-09 1 
3472 1 19.3334 24.9481 -133.03 9.62376e-09 1 
3473 1 21.0029 26.541 -133.963 8.00706e-09 1 
3474 1 20.4467 26.6 -131.537 6.43323e-09 1 
3475 1 21.7452 24.6925 -132.47 1.4844e-08 1 
3476 1 21.189 24.7514 -130.045 1.77846e-09 1 
3477 1 22.8586 26.3443 -130.978 3.49983e-09 1 
3501 4 14.1377 27.2687 -148.328 12.3904 5 
3502 4 15.4363 25.3612 -149.261 30.976 5 
3503 4 14.8798 25.4202 -146.835 1.3e-13 1 
3504 4 16.5494 27.0131 -147.768 6.1952 5 
3505 4 15.9929 27.0721 -145.343 8e-14 1 
3506 4 17.2915 25.1645 -146.276 8e-14 1 
3507 4 16.735 25.2235 -143.85 2.00615e-08 1 
3508 4 18.4046 26.8164 -144.783 2.91217e-09 1 
3509 1 17.8481 26.8754 -142.358 3.77701e-08 1 
3510 4 19.1467 24.9679 -143.291 5.33036e-08 1 
3511 1 18.5903 25.0269 -140.865 1.28433e-08 1 
3512 1 20.2599 26.6197 -141.798 2.45949e-08 1 
3513 1 19.7036 26.6787 -139.373 5.08026e-09 1 
3514 1 21.0022 24.7712 -140.306 1.76955e-09 1 
3515 1 20.4459 24.8302 -137.88 1.32848e-09 1 
3516 1 22.1154 26.4231 -138.813 4.35907e-09 1 
3517 1 21.5592 26.482 -136.388 1.6497e-09 1 
3518 1 22.8577 24.5745 -137.321 1.64732e-09 1 
3519 1 22.3014 24.6335 -134.895 3.25983e-09 1 
3520 1 23.971 26.2264 -135.828 3.52233e-09 1 
3521 1 23.4147 26.2854 -133.403 8.87077e-09 1 
3522 1 24.7133 24.3778 -134.336 4.86295e-09 1 
3523 1 24.157 24.4368 -131.91 1.08603e-08 1 
3524 1 25.8266 26.0297 -132.843 7.69836e-09 1 
3525 1 25.2704 26.0887 -130.418 4.6535e-09 1 
3526 1 26.5689 24.1812 -131.351 4.48199e-09 1 
3542 4 17.8481 25.1055 -148.701 18.5856 5 
3543 4 19.5178 26.6984 -149.634 30.976 5 
3544 4 18.9612 26.7574 -147.208 5e-14 1 
3545 4 20.2599 24.8499 -148.141 6.1952 5 
3546 4 19.7033 24.9089 -145.716 1.4e-13 1 
3547 4 21.373 26.5018 -146.649 1.1e-13 1 
3548 4 20.8164 26.5608 -144.223 9.23077e-09 1 
3549 4 22.1151 24.6532 -145.156 7e-14 1 
3550 4 21.5585 24.7122 -142.731 1.19628e-07 1 
3551 4 23.2282 26.3051 -143.664 2.83186e-08 1 
3552 1 22.6718 26.3641 -141.238 1.27231e-08 1 
3553 1 23.9703 24.4566 -142.171 5.08954e-08 1 
3554 1 23.414 24.5156 -139.746 2.08973e-09 1 
3555 1 25.0836 26.1084 -140.679 2.20174e-09 1 
3556 1 24.5273 26.1674 -138.253 7.00908e-09 1 
3557 1 25.8258 24.2599 -139.186 1.22643e-09 1 
3558 1 25.2695 24.3189 -136.761 2.58152e-09 1 
3559 1 26.9391 25.9118 -137.694 4.04912e-09 1 
3560 1 26.3828 25.9707 -135.268 6.86913e-09 1 
3561 1 27.6813 24.0632 -136.201 5.53761e-09 1 
3562 1 27.1251 24.1222 -133.776 4.30772e-09 1 
3563 1 28.7946 25.7151 -134.709 6.75482e-09 1 
3564 1 28.2384 25.774 -132.283 2.14953e-09 1 
3565 1 29.5369 23.8665 -133.216 3.63646e-09 1 
3566 1 28.9808 23.9255 -130.791 2.91236e-09 1 
3567 1 30.6503 25.5184 -131.724 2.82469e-09 1 
3569 1 31.3926 23.6699 -130.231 2.57895e-09 1 
3575 4 21.9295 26.4428 -149.074 24.7808 5 
3576 4 22.6716 24.5942 -147.581 6.1952 5 
3577 4 24.3413 26.1871 -148.514 12.3904 5 
3578 4 23.7847 26.2461 -146.089 1e-13 1 
3579 4 25.0834 24.3386 -147.022 1.4e-13 1 
3580 4 24.5268 24.3976 -144.597 3.92281e-09 1 
3581 4 26.1965 25.9905 -145.529 1.2e-13 1 
3582 4 25.6399 26.0495 -143.104 7.38705e-08 1 
3583 4 26.9386 24.1419 -144.037 1.18581e-08 1 
3584 1 26.3821 24.2009 -141.612 2.77782e-08 1 
3585 4 28.0517 25.7938 -142.544 1.52199e-07 1 
3586 1 27.4954 25.8528 -140.119 4.59538e-09 1 
3587 1 28.7939 23.9453 -141.052 1.06369e-08 1 
3588 1 28.2376 24.0042 -138.627 1.60827e-09 1 
3589 1 29.9072 25.5971 -139.559 2.10269e-09 1 
3590 1 29.3509 25.6561 -137.134 2.97331e-09 1 
3591 1 30.6495 23.7486 -138.067 1.57925e-09 1 
3592 1 30.0932 23.8076 -135.642 1.17507e-08 1 
3593 1 31.7627 25.4005 -136.574 1.81479e-09 1 
3594 1 31.2065 25.4594 -134.149 6.96996e-09 1 
3595 1 32.505 23.5519 -135.082 9.60806e-09 1 
3596 1 31.9488 23.6109 -132.657 2.67808e-09 1 
3597 1 33.0622 25.2628 -131.164 1.43628e-09 1 
3598 4 25.6399 24.2796 -149.447 30.976 5 
3599 4 26.7531 25.9315 -147.955 6.1952 5 
3600 4 28.0517 24.024 -148.887 24.7808 5 
3601 4 27.4951 24.083 -146.462 1.1e-13 1 
3602 4 29.1648 25.6758 -147.395 6.1952 5 
3603 4 28.6083 25.7348 -144.97 1.4e-13 1 
3604 4 29.9069 23.8273 -145.902 7e-14 1 
3605 4 29.3503 23.8863 -143.477 3.42134e-08 1 
3606 4 31.02 25.4792 -144.41 4.35193e-09 1 
3607 1 30.4635 25.5382 -141.985 6.20177e-08 1 
3608 4 31.7621 23.6307 -142.917 8.80596e-08 1 
3609 1 31.2058 23.6896 -140.492 3.7133e-09 1 
3610 1 32.8753 25.2825 -141.425 2.36688e-08 1 
3611 1 32.319 25.3415 -139 1.06118e-09 1 
3612 1 33.0613 23.493 -137.507 1.12077e-09 1 
3613 4 30.4635 23.7683 -148.328 18.5856 5 
3614 4 32.1332 25.3612 -149.261 30.976 5 
3615 4 31.5766 25.4202 -146.835 1.01881e-13 1 
3616 4 32.8752 23.5127 -147.768 6.1952 5 
3617 4 32.3187 23.5717 -145.343 1.04924e-13 1 
4788 1 33.6183 25.2038 -133.589 6.12671e-09 1 
4789 1 34.3607 23.3553 -132.097 3.3569e-09 1 
4791 1 35.474 25.0071 -130.604 9.23832e-10 1 
4860 1 33.6176 23.434 -139.933 3.32746e-09 1 
4861 1 34.7309 25.0858 -138.44 5.8007e-10 1 
4862 1 34.1746 25.1448 -136.015 6.04897e-09 1 
4863 1 35.4731 23.2373 -136.948 2.41972e-09 1 
4864 1 34.9168 23.2963 -134.522 1.08706e-08 1 
4865 1 3.19275 24.8892 -135.455 6.55461e-09 1 
4866 1 36.0302 24.9481 -133.03 9.50794e-09 1 
4867 1 3.93503 23.0406 -133.963 7.96599e-09 1 
4868 1 3.37884 23.0996 -131.537 6.42467e-09 1 
4869 1 5.04836 24.6925 -132.47 1.46583e-08 1 
4870 1 4.49222 24.7514 -130.045 1.72997e-09 1 
4871 1 5.7907 22.8439 -130.978 3.44783e-09 1 
4932 4 33.9884 25.1645 -146.276 1.47605e-13 1 
4933 4 33.4318 25.2235 -143.85 2.00389e-08 1 
4934 4 34.7304 23.316 -144.783 2.9098e-09 1 
4935 1 34.1739 23.375 -142.358 3.76984e-08 1 
4936 4 35.8436 24.9679 -143.291 5.34293e-08 1 
4937 1 35.2872 25.0269 -140.865 1.27927e-08 1 
4938 1 3.19208 23.1194 -141.798 2.45285e-08 1 
4939 1 2.63575 23.1783 -139.373 5.14408e-09 1 
4940 1 4.30534 24.7712 -140.306 1.74238e-09 1 
4941 1 3.74904 24.8302 -137.88 1.30851e-09 1 
4942 1 5.04757 22.9227 -138.813 4.3529e-09 1 
4943 1 4.49129 22.9817 -136.388 1.63295e-09 1 
4944 1 6.16086 24.5745 -137.321 1.66068e-09 1 
4945 1 5.60459 24.6335 -134.895 3.2582e-09 1 
4946 1 6.90312 22.726 -135.828 3.42408e-09 1 
4947 1 6.34687 22.785 -133.403 8.8747e-09 1 
4948 1 8.01643 24.3778 -134.336 4.81974e-09 1 
4949 1 7.46021 24.4368 -131.91 1.09217e-08 1 
4950 1 8.75872 22.5293 -132.843 7.77497e-09 1 
4951 1 8.20254 22.5883 -130.418 4.54859e-09 1 
4952 1 9.87207 24.1812 -131.351 4.46584e-09 1 
5004 4 34.5449 25.1055 -148.701 18.5856 5 
5005 4 35.8436 23.198 -149.634 30.976 5 
5006 4 35.287 23.257 -147.208 9.8281e-14 1 
5007 4 3.56303 24.8499 -148.141 6.1952 5 
5008 4 3.00646 24.9089 -145.716 9e-14 1 
5009 4 4.30511 23.0014 -146.649 1.1e-13 1 
5010 4 3.74855 23.0604 -144.223 9.20752e-09 1 
5011 4 5.41823 24.6532 -145.156 8e-14 1 
5012 4 4.86167 24.7122 -142.731 1.19798e-07 1 
5013 4 6.16031 22.8047 -143.664 2.84148e-08 1 
5014 1 5.60389 22.8637 -141.238 1.26859e-08 1 
5015 1 7.27349 24.4566 -142.171 5.08546e-08 1 
5016 1 6.71717 24.5156 -139.746 2.06304e-09 1 
5017 1 8.01572 22.608 -140.679 2.21708e-09 1 
5018 1 7.45939 22.667 -138.253 7.0144e-09 1 
5019 1 9.12899 24.2599 -139.186 1.23604e-09 1 
5020 1 8.57269 24.3189 -136.761 2.58505e-09 1 
5021 1 9.87122 22.4114 -137.694 3.9519e-09 1 
5022 1 9.31494 22.4703 -135.268 6.85221e-09 1 
5023 1 10.9845 24.0632 -136.201 5.51543e-09 1 
5024 1 10.4283 24.1222 -133.776 4.32666e-09 1 
5025 1 11.7268 22.2147 -134.709 6.67117e-09 1 
5026 1 11.1706 22.2737 -132.283 2.17807e-09 1 
5027 1 12.8401 23.8665 -133.216 3.66434e-09 1 
5028 1 12.2839 23.9255 -130.791 2.83442e-09 1 
5029 1 13.5824 22.018 -131.724 2.82098e-09 1 
5031 1 14.6958 23.6699 -130.231 2.55085e-09 1 
5073 4 4.86167 22.9424 -149.074 24.7808 5 
5074 4 5.97479 24.5942 -147.581 6.1952 5 
5075 4 7.27343 22.6867 -148.514 18.5856 5 
5076 4 6.71687 22.7457 -146.089 5e-14 1 
5077 4 8.38655 24.3386 -147.022 8e-14 1 
5078 4 7.82999 24.3976 -144.597 3.93673e-09 1 
5079 4 9.12863 22.4901 -145.529 1.6e-13 1 
5080 4 8.57207 22.5491 -143.104 7.38809e-08 1 
5081 4 10.2418 24.1419 -144.037 1.18605e-08 1 
5082 1 9.6853 24.2009 -141.612 2.78705e-08 1 
5083 4 10.9838 22.2934 -142.544 1.52214e-07 1 
5084 1 10.4275 22.3524 -140.119 4.62384e-09 1 
5085 1 12.0971 23.9453 -141.052 1.06755e-08 1 
5086 1 11.5408 24.0042 -138.627 1.61019e-09 1 
5087 1 12.8394 22.0967 -139.559 2.06605e-09 1 
5088 1 12.2831 22.1557 -137.134 2.97639e-09 1 
5089 1 13.9526 23.7486 -138.067 1.54623e-09 1 
5090 1 13.3963 23.8076 -135.642 1.18788e-08 1 
5091 1 14.6949 21.9001 -136.574 1.80478e-09 1 
5092 1 14.1386 21.9591 -134.149 6.96388e-09 1 
5093 1 15.8082 23.5519 -135.082 9.5406e-09 1 
5094 1 15.252 23.6109 -132.657 2.72494e-09 1 
5095 1 16.5505 21.7034 -133.589 6.14685e-09 1 
5096 1 15.9943 21.7624 -131.164 1.43223e-09 1 
5097 1 17.6638 23.3553 -132.097 3.30351e-09 1 
5099 1 18.4062 21.5067 -130.604 9.29286e-10 1 
5133 4 8.94311 24.2796 -149.447 30.976 5 
5134 4 9.6852 22.4311 -147.955 6.1952 5 
5135 4 11.3549 24.024 -148.887 24.7808 5 
5136 4 10.7983 24.083 -146.462 1.3e-13 1 
5137 4 12.097 22.1754 -147.395 6.1952 5 
5138 4 11.5404 22.2344 -144.97 1.2e-13 1 
5139 4 13.2101 23.8273 -145.902 9e-14 1 
5140 4 12.6535 23.8863 -143.477 3.41203e-08 1 
5141 4 13.9522 21.9788 -144.41 4.35523e-09 1 
5142 1 13.3957 22.0378 -141.985 6.19998e-08 1 
5143 4 15.0653 23.6307 -142.917 8.81914e-08 1 
5144 1 14.5089 23.6896 -140.492 3.74332e-09 1 
5145 1 15.8075 21.7821 -141.425 2.35382e-08 1 
5146 1 15.2512 21.8411 -139 1.07898e-09 1 
5147 1 16.9208 23.434 -139.933 3.27941e-09 1 
5148 1 16.3645 23.493 -137.507 1.12785e-09 1 
5149 1 17.663 21.5855 -138.44 5.82877e-10 1 
5150 1 17.1067 21.6444 -136.015 5.99961e-09 1 
5151 1 18.7763 23.2373 -136.948 2.40142e-09 1 
5152 1 18.22 23.2963 -134.522 1.07547e-08 1 
5153 1 19.5185 21.3888 -135.455 6.53782e-09 1 
5154 1 18.9623 21.4478 -133.03 9.61823e-09 1 
5155 1 20.6319 23.0406 -133.963 7.94386e-09 1 
5156 1 20.0757 23.0996 -131.537 6.4603e-09 1 
5157 1 21.3741 21.1921 -132.47 1.46995e-08 1 
5158 1 20.818 21.2511 -130.045 1.76325e-09 1 
5159 1 22.4875 22.8439 -130.978 3.492e-09 1 
5184 4 13.7666 23.7683 -148.328 18.5856 5 
5185 4 15.0653 21.8608 -149.261 30.976 5 
5186 4 14.5087 21.9198 -146.835 1e-13 1 
5187 4 16.1784 23.5127 -147.768 6.1952 5 
5188 4 15.6218 23.5717 -145.343 7e-14 1 
5189 4 16.9205 21.6641 -146.276 1.4e-13 1 
5190 4 16.3639 21.7231 -143.85 2.01232e-08 1 
5191 4 18.0336 23.316 -144.783 2.88625e-09 1 
5192 1 17.4771 23.375 -142.358 3.78328e-08 1 
5193 4 18.7757 21.4675 -143.291 5.33128e-08 1 
5194 1 18.2193 21.5265 -140.865 1.28863e-08 1 
5195 1 19.8889 23.1194 -141.798 2.45756e-08 1 
5196 1 19.3326 23.1783 -139.373 5.05716e-09 1 
5197 1 20.6311 21.2708 -140.306 1.74845e-09 1 
5198 1 20.0748 21.3298 -137.88 1.31763e-09 1 
5199 1 21.7444 22.9227 -138.813 4.34184e-09 1 
5200 1 21.1881 22.9817 -136.388 1.65969e-09 1 
5201 1 22.4866 21.0741 -137.321 1.68685e-09 1 
5202 1 21.9304 21.1331 -134.895 3.21126e-09 1 
5203 1 23.5999 22.726 -135.828 3.50066e-09 1 
5204 1 23.0437 22.785 -133.403 8.82341e-09 1 
5205 1 24.3422 20.8775 -134.336 4.85809e-09 1 
5206 1 23.786 20.9364 -131.91 1.11179e-08 1 
5207 1 25.4555 22.5293 -132.843 7.65167e-09 1 
5208 1 24.8994 22.5883 -130.418 4.56341e-09 1 
5209 1 26.1979 20.6808 -131.351 4.48455e-09 1 
5226 4 17.477 21.6051 -148.701 18.5856 5 
5227 4 19.1467 23.198 -149.634 30.976 5 
5228 4 18.5902 23.257 -147.208 9e-14 1 
5229 4 19.8888 21.3495 -148.141 6.1952 5 
5230 4 19.3323 21.4085 -145.716 1.2e-13 1 
5231 4 21.0019 23.0014 -146.649 9e-14 1 
5232 4 20.4454 23.0604 -144.223 9.23689e-09 1 
5233 4 21.744 21.1529 -145.156 1e-13 1 
5234 4 21.1875 21.2118 -142.731 1.19577e-07 1 
5235 4 22.8571 22.8047 -143.664 2.832e-08 1 
5236 1 22.3007 22.8637 -141.238 1.26826e-08 1 
5237 1 23.5993 20.9562 -142.171 5.1141e-08 1 
5238 1 23.043 21.0152 -139.746 2.07545e-09 1 
5239 1 24.7125 22.608 -140.679 2.20891e-09 1 
5240 1 24.1562 22.667 -138.253 6.86402e-09 1 
5241 1 25.4548 20.7595 -139.186 1.20996e-09 1 
5242 1 24.8985 20.8185 -136.761 2.61533e-09 1 
5243 1 26.568 22.4114 -137.694 3.91075e-09 1 
5244 1 26.0118 22.4703 -135.268 6.89415e-09 1 
5245 1 27.3103 20.5628 -136.201 5.46111e-09 1 
5246 1 26.7541 20.6218 -133.776 4.30556e-09 1 
5247 1 28.4236 22.2147 -134.709 6.76476e-09 1 
5248 1 27.8674 22.2737 -132.283 2.18091e-09 1 
5249 1 29.1659 20.3662 -133.216 3.64608e-09 1 
5250 1 28.6097 20.4251 -130.791 2.8545e-09 1 
5251 1 30.2793 22.018 -131.724 2.89784e-09 1 
5253 1 31.0216 20.1695 -130.231 2.55042e-09 1 
5259 4 21.5585 22.9424 -149.074 24.7808 5 
5260 4 22.3006 21.0939 -147.581 6.1952 5 
5261 4 23.9703 22.6867 -148.514 18.5856 5 
5262 4 23.4137 22.7457 -146.089 1.1e-13 1 
5263 4 24.7123 20.8382 -147.022 1.3e-13 1 
5264 4 24.1558 20.8972 -144.597 3.91227e-09 1 
5265 4 25.8255 22.4901 -145.529 1.2e-13 1 
5266 4 25.2689 22.5491 -143.104 7.37987e-08 1 
5267 4 26.5675 20.6416 -144.037 1.18061e-08 1 
5268 1 26.0111 20.7005 -141.612 2.79548e-08 1 
5269 4 27.6807 22.2934 -142.544 1.52218e-07 1 
5270 1 27.1244 22.3524 -140.119 4.59007e-09 1 
5271 1 28.4229 20.4449 -141.052 1.06877e-08 1 
5272 1 27.8666 20.5039 -138.627 1.65782e-09 1 
5273 1 29.5362 22.0967 -139.559 2.09995e-09 1 
5274 1 28.9799 22.1557 -137.134 2.9835e-09 1 
5275 1 30.2784 20.2482 -138.067 1.54369e-09 1 
5276 1 29.7221 20.3072 -135.642 1.19302e-08 1 
5277 1 31.3917 21.9001 -136.574 1.82118e-09 1 
5278 1 30.8355 21.9591 -134.149 6.96476e-09 1 
5279 1 32.134 20.0515 -135.082 9.5896e-09 1 
5280 1 31.5778 20.1105 -132.657 2.67527e-09 1 
5281 1 33.2473 21.7034 -133.589 6.11178e-09 1 
5282 1 32.6911 21.7624 -131.164 1.41573e-09 1 
5283 4 25.2689 20.7792 -149.447 30.976 5 
5284 4 26.382 22.4311 -147.955 6.1952 5 