ITEM: TIMESTEP
0
ITEM: NUMBER OF ATOMS
18352
ITEM: BOX BOUNDS ss pp pp
-63.2401 115.872
0 33.3937
0 33.3937
ITEM: ATOMS id type x y z c_cna c_csd 
450 4 -62.6533 1.66105 0.771101 5 18.5856 
462 4 -60.3066 2.40313 1.14214 1 6.99682e-16 
465 4 -58.5466 0.733449 1.6987 1 5.98684e-16 
795 4 -56.7866 0.176889 0.0290199 1 9.01577e-16 
825 4 -56.2 1.47553 2.06974 1 6.98582e-16 
826 4 -54.44 0.91897 0.40006 1 1.20957e-08 
827 4 -53.8533 2.21761 2.44078 1 3.11816e-08 
1246 1 -52.0933 1.66106 0.771024 1 3.00562e-09 
1289 1 -49.7466 2.40313 1.14197 1 5.27659e-09 
1292 1 -47.9866 0.733438 1.69852 1 3.24335e-09 
1763 1 -46.2266 0.176848 0.0288269 1 3.13314e-09 
1806 1 -45.6399 1.47548 2.06952 1 2.41825e-09 
1807 1 -43.8799 0.918897 0.399845 1 6.92489e-09 
1808 1 -43.2932 2.21754 2.44054 1 2.33311e-09 
2299 1 -41.5332 1.66095 0.770854 1 8.10114e-09 
2342 1 -39.1865 2.40302 1.14186 1 7.96547e-09 
2345 1 -37.4265 0.733332 1.6984 1 5.73354e-09 
2840 1 -35.6665 0.176786 0.0287222 1 1.4582e-08 
2883 1 -35.0798 1.47543 2.06942 1 1.13498e-08 
2884 1 -33.3197 0.918919 0.399751 1 2.60527e-08 
2885 1 -32.7331 2.21754 2.44042 1 3.27906e-08 
3379 1 -30.9729 1.66106 0.77079 1 8.48345e-08 
3422 1 -28.6261 2.40324 1.14181 1 2.01364e-07 
3425 1 -26.866 0.733659 1.69837 1 1.6486e-07 
3920 1 -25.1058 0.177297 0.028707 1 3.83116e-07 
3963 1 -24.519 1.47582 2.06927 1 4.92734e-07 
3964 1 -22.7585 0.919483 0.399568 1 1.16605e-06 
3965 1 -22.1718 2.21794 2.44016 1 1.22359e-06 
4455 1 -20.4111 1.66163 0.77044 1 3.12919e-06 
4498 1 -18.0633 2.40377 1.14141 1 6.87586e-06 
4501 1 -16.3032 0.733797 1.69726 1 5.66879e-06 
4972 1 -14.5417 0.177989 0.0275331 1 1.35662e-05 
5015 1 -13.9553 1.4755 2.06802 1 1.09578e-05 
5016 1 -12.1926 0.919819 0.398743 1 3.03097e-05 
5017 1 -11.6079 2.21733 2.43916 1 2.58887e-05 
5442 1 -9.84305 1.66208 0.771127 1 0.000145296 
5485 1 -7.48919 2.4039 1.14178 1 0.00125598 
5488 1 -5.74545 0.728881 1.70017 1 0.00637915 
5851 1 -3.94245 0.185156 0.027646 1 0.0566676 
5894 1 -3.42734 1.47465 2.0603 1 0.114888 
5895 1 -1.47032 0.832504 0.393382 5 2.38392 
5896 1 -1.11301 2.14077 2.41612 1 0.659173 
8933 2 0.798304 1.67632 0.822889 5 5.13212 
8939 2 3.15988 0.923286 1.22368 1 0.272666 
9474 2 5.56318 0.189349 1.51343 1 0.0160036 
9480 2 7.32668 1.86075 2.06062 1 0.00489878 
9478 2 9.08982 2.41442 0.397666 1 0.000680871 
9482 2 9.68025 1.11499 2.43554 1 0.000746012 
10012 2 11.4413 1.67012 0.769537 1 0.000132166 
10019 2 13.7899 0.92678 1.14207 1 3.97407e-05 
10554 2 16.1372 0.18406 1.51446 1 1.36576e-05 
10560 2 17.8983 1.8537 2.0717 1 5.6892e-06 
10558 2 19.6587 2.41033 0.402843 1 2.18907e-06 
10562 2 20.2452 1.11174 2.44342 1 2.26819e-06 
11092 2 22.0055 1.66847 0.774297 1 8.54134e-07 
11099 2 24.3521 0.926646 1.14573 1 3.53365e-07 
451 4 -62.0666 4.07281 0.585581 5 12.3904 
792 4 -59.72 4.8149 0.956621 1 7.996e-16 
793 4 -57.96 3.14521 1.51318 1 1.24129e-21 
823 4 -55.6133 3.88729 1.88422 1 2.71229e-09 
1242 1 -53.2666 4.62939 2.25521 1 5.37836e-09 
1245 4 -53.8533 3.33073 0.21454 1 3.33265e-08 
1247 1 -51.5066 4.07282 0.585459 1 2.68774e-09 
1760 1 -49.16 4.81488 0.956408 1 6.99884e-09 
1761 1 -47.3999 3.14518 1.51295 1 4.39489e-09 
1804 1 -45.0532 3.88722 1.88396 1 6.39894e-09 
2298 1 -43.2932 3.33064 0.214291 1 1.91812e-08 
2295 1 -42.7066 4.62928 2.25499 1 6.47611e-09 
2300 1 -40.9465 4.07271 0.585321 1 1.43289e-08 
2837 1 -38.5998 4.81479 0.956336 1 1.4218e-08 
2838 1 -36.8398 3.14511 1.51287 1 1.13413e-08 
2881 1 -34.4931 3.8872 1.88389 1 2.80958e-08 
3378 1 -32.733 3.33069 0.214209 1 6.79232e-08 
3375 1 -32.1463 4.62933 2.25491 1 6.13808e-08 
3380 1 -30.3862 4.07283 0.585264 1 1.26712e-07 
3917 1 -28.0394 4.815 0.956344 1 2.5698e-07 
3918 1 -26.2791 3.14541 1.51281 1 5.18643e-07 
3961 1 -23.9321 3.88759 1.88385 1 1.15387e-06 
4451 1 -21.5849 4.62979 2.25497 1 2.54123e-06 
4454 1 -22.1716 3.33122 0.214188 1 2.63031e-06 
4456 1 -19.8242 4.07346 0.585401 1 6.26506e-06 
4969 1 -17.4766 4.81582 0.956829 1 1.62625e-05 
4970 1 -15.7154 3.14593 1.51253 1 1.42142e-05 
5013 1 -13.3674 3.88824 1.8838 1 3.13104e-05 
5438 1 -11.019 4.63079 2.25457 1 8.07491e-05 
5441 1 -11.6039 3.33216 0.214583 1 0.0001025 
5443 1 -9.25233 4.07398 0.585213 1 0.000325839 
5848 1 -6.9033 4.81824 0.956379 1 0.000753159 
5849 1 -5.14013 3.15326 1.51917 1 0.00803864 
5892 1 -2.76831 3.90228 1.92246 1 0.103753 
6169 1 -1.01908 3.35591 0.278739 5 2.66767 
8406 2 -0.266405 4.52264 2.28763 5 4.51033 
8937 2 2.57128 3.36481 1.32428 5 2.33746 
8935 2 4.33746 4.99966 1.90738 1 0.0495618 
8940 2 4.94744 2.60195 1.69917 1 0.0284976 
7346 2 6.72837 3.15963 0.0332783 1 0.00376757 
8949 2 6.71925 4.26228 2.26128 1 0.00585126 
9476 2 8.49081 4.82049 0.591475 1 0.00147713 
9479 2 10.8496 4.07986 0.958485 1 0.000204519 
10017 2 13.2019 3.33798 1.32863 1 4.2137e-05 
10015 2 14.9635 5.00653 1.88719 1 1.14621e-05 
10020 2 15.5509 2.59582 1.69997 1 1.52905e-05 
8289 2 17.3114 3.15218 0.0314465 1 6.07926e-06 
10029 2 17.3116 4.26512 2.25792 1 5.51672e-06 
10556 2 19.0718 4.8217 0.588877 1 1.85079e-06 
10559 2 21.4189 4.0801 0.959936 1 9.21295e-07 
11095 2 25.5256 5.00831 1.88802 1 2.41795e-07 
11097 2 23.7657 3.33837 1.33117 1 4.63251e-07 
11100 2 26.1123 2.59661 1.70247 1 2.11164e-07 
449 4 -63.24 7.04114 2.06974 5 30.976 
774 4 -61.48 6.48458 0.40006 5 6.1952 
790 4 -59.1333 7.22666 0.771101 1 1.1994e-15 
794 4 -57.3733 5.55698 1.32766 1 6.99601e-16 
1241 4 -55.0266 6.29906 1.6987 1 1.2211e-08 
1243 1 -53.2666 5.7425 0.0289678 1 5.96306e-09 
1244 1 -52.68 7.04115 2.06966 1 2.34853e-09 
1721 1 -50.92 6.48458 0.399902 1 4.14563e-09 
1758 1 -48.5733 7.22664 0.770867 1 6.50107e-09 
1762 1 -46.8133 5.55692 1.3274 1 4.35659e-09 
2294 1 -44.4666 6.29897 1.6984 1 8.42317e-09 
2296 1 -42.7066 5.74239 0.0287406 1 2.52249e-09 
2297 1 -42.1199 7.04103 2.06944 1 1.43844e-09 
2798 1 -40.3599 6.48447 0.399776 1 3.07499e-09 
2835 1 -38.0132 7.22656 0.77082 1 9.72404e-09 
2839 1 -36.2531 5.55688 1.32736 1 1.85089e-08 
3374 1 -33.9064 6.29898 1.6984 1 2.68608e-08 
3376 1 -32.1464 5.74248 0.0287291 1 3.9242e-08 
3377 1 -31.5597 7.0411 2.06948 1 4.90178e-08 
3878 1 -29.7997 6.48461 0.399849 1 8.41281e-08 
3915 1 -27.4529 7.22679 0.770986 1 1.81581e-07 
3919 1 -25.6925 5.55719 1.32745 1 5.32789e-07 
4450 1 -23.3456 6.29941 1.69866 1 1.1815e-06 
4452 1 -21.5854 5.74303 0.0291383 1 2.12143e-06 
4453 1 -20.9987 7.04171 2.07001 1 2.6091e-06 
4930 1 -19.2384 6.48539 0.400676 1 5.25739e-06 
4967 1 -16.8913 7.22796 0.772525 1 1.39639e-05 
4971 1 -15.1287 5.55839 1.32848 1 4.55924e-05 
5437 1 -12.7803 6.30133 1.70022 1 0.000135808 
5439 1 -11.0176 5.74453 0.0308085 1 0.000452338 
5440 1 -10.4316 7.04519 2.07189 1 0.000386016 
5809 1 -8.66783 6.48836 0.401925 1 0.00147195 
5846 1 -6.31462 7.23153 0.771519 1 0.00629066 
5850 1 -4.54853 5.55577 1.32414 1 0.00927631 
6166 1 -2.22631 6.29951 1.73006 1 0.42724 
6167 3 -0.00369152 6.84942 2.40917 5 11.1534 
6168 1 -0.364988 5.73451 0.170333 5 7.13069 
8413 2 1.93653 5.70383 1.49769 5 4.85925 
8414 2 3.84185 7.40413 2.04513 1 0.0867882 
8936 2 6.12502 5.5578 0.224773 1 0.00775309 
8945 2 7.91695 7.22629 0.772419 1 0.00136276 
8947 2 6.16399 6.66653 2.43779 1 0.0103836 
9475 2 10.264 6.48701 1.14709 1 0.00025765 
9489 2 12.6142 5.7473 1.51708 1 4.10474e-05 
9490 2 14.3758 7.41718 2.07419 1 1.6679e-05 
10016 2 16.7241 5.56298 0.218153 1 4.97971e-06 
10025 2 18.4845 7.23288 0.775173 1 2.71481e-06 
10027 2 16.7238 6.67628 2.44461 1 4.74969e-06 
10555 2 20.8317 6.49157 1.14592 1 8.56652e-07 
10569 2 23.1788 5.75 1.51689 1 3.99127e-07 
10570 2 24.9386 7.41996 2.07372 1 1.61021e-07 
770 4 -62.6533 9.4529 1.88422 5 18.5856 
775 4 -60.8933 8.89634 0.21454 1 1.10001e-15 
788 4 -60.8933 7.78322 2.44078 1 1.2009e-15 
786 4 -60.3066 10.195 2.25526 1 1.10381e-15 
1206 4 -58.5466 9.63842 0.585581 1 9.97712e-16 
1207 4 -56.7866 7.96874 1.14214 1 1.0002e-15 
1239 4 -54.44 8.71082 1.51318 1 2.29902e-08 
1717 1 -52.0933 9.45292 1.88413 1 3.75459e-09 
1722 1 -50.3333 8.89634 0.214375 1 3.46454e-09 
1754 1 -49.7466 10.195 2.2551 1 3.80324e-09 
1756 1 -50.3333 7.78323 2.44061 1 4.61683e-09 
2255 1 -47.9866 9.63841 0.585365 1 2.68093e-09 
2256 1 -46.2266 7.96868 1.14186 1 6.35868e-09 
2292 1 -43.8799 8.71072 1.51288 1 9.69832e-09 
2794 1 -41.5333 9.45279 1.8839 1 7.84167e-09 
2799 1 -39.7733 8.89623 0.214231 1 8.27462e-09 
2831 1 -39.1866 10.1949 2.25496 1 6.73346e-09 
2833 1 -39.7732 7.78311 2.44048 1 2.98425e-09 
3335 1 -37.4266 9.63832 0.585306 1 1.03601e-08 
3336 1 -35.6665 7.96865 1.14187 1 1.28859e-08 
3372 1 -33.3198 8.71076 1.51294 1 2.58526e-08 
3874 1 -30.9731 9.45289 1.88405 1 5.2429e-08 
3879 1 -29.2131 8.89641 0.21444 1 9.63533e-08 
3911 1 -28.6265 10.1951 2.25519 1 1.04977e-07 
3913 1 -29.213 7.78324 2.44061 1 1.15955e-07 
4411 1 -26.8665 9.63863 0.585601 1 1.97605e-07 
4412 1 -25.1062 7.96901 1.14218 1 4.26787e-07 
4448 1 -22.7594 8.71128 1.51346 1 9.63248e-07 
4926 1 -20.4127 9.45366 1.88486 1 2.30225e-06 
4931 1 -18.653 8.89741 0.215733 1 5.35516e-06 
4963 1 -18.0658 10.1962 2.25632 1 5.7019e-06 
4965 1 -18.6517 7.78418 2.44155 1 5.76589e-06 
5398 1 -16.3063 9.64012 0.587578 1 1.49752e-05 
5399 1 -14.5441 7.97094 1.14483 1 4.12724e-05 
5435 1 -12.1966 8.71475 1.51784 1 0.000158088 
5805 1 -9.84763 9.45951 1.89163 1 0.000746543 
5810 1 -8.09991 8.90343 0.224067 1 0.00272809 
5842 1 -7.49397 10.2059 2.26629 1 0.00490678 
5844 1 -8.08108 7.78914 2.44245 1 0.00134138 
6127 1 -5.76601 9.64991 0.598546 1 0.0252204 
6128 1 -3.96737 7.97297 1.16142 1 0.203981 
6164 1 -1.251 8.66379 1.42892 5 6.10838 
8409 2 3.26032 9.82551 2.26635 1 0.114684 
8411 2 1.58983 8.21131 1.61213 5 4.71532 
8934 2 5.57681 7.96646 0.389392 1 0.0093205 
8943 2 7.3394 9.63919 0.957601 1 0.00091056 
8946 2 9.6824 8.89811 1.33082 1 0.000249472 
9487 2 12.028 8.15758 1.70348 1 6.60889e-05 
7416 2 13.79 8.71424 0.0341657 1 3.54906e-05 
9485 2 13.7879 9.82888 2.25954 1 1.08337e-05 
10014 2 16.1371 7.97379 0.404663 1 1.03351e-05 
10023 2 17.8971 9.64436 0.9609 1 3.60821e-06 
10026 2 20.2443 8.90307 1.33177 1 1.29083e-06 
10567 2 22.5915 8.16158 1.70269 1 4.23746e-07 
8359 2 24.352 8.71835 0.0331676 1 2.0771e-07 
10565 2 24.3514 9.83156 2.25935 1 4.90056e-07 
772 4 -62.0666 11.8647 1.6987 5 18.5856 
1184 4 -60.3066 11.3081 0.0290199 1 1.40037e-15 
1202 4 -59.72 12.6067 2.06974 1 3.001e-16 
1204 4 -57.96 12.0502 0.40006 1 5.99107e-16 
1208 4 -56.2 10.3805 0.956621 1 8.03206e-16 
1685 4 -55.6133 12.7923 0.771101 1 1.22049e-09 
1716 4 -53.8533 11.1226 1.32766 1 3.0009e-08 
1719 1 -51.5066 11.8647 1.6986 1 5.61395e-09 
2223 1 -49.7466 11.3081 0.0288653 1 6.74573e-09 
2251 1 -49.16 12.6068 2.06959 1 4.25393e-09 
2253 1 -47.4 12.0502 0.399871 1 1.82628e-09 
2257 1 -45.64 10.3805 0.956367 1 1.12341e-09 
2762 1 -45.0533 12.7922 0.770878 1 2.44776e-09 
2793 1 -43.2933 11.1225 1.32737 1 6.65541e-09 
2796 1 -40.9466 11.8646 1.6984 1 6.68281e-09 
3303 1 -39.1866 11.308 0.0287197 1 1.42916e-08 
3331 1 -38.5999 12.6066 2.06943 1 1.02133e-08 
3333 1 -36.8399 12.0501 0.39977 1 1.09973e-08 
3337 1 -35.0799 10.3804 0.956364 1 1.63804e-08 
3842 1 -34.4932 12.7922 0.770839 1 2.02078e-08 
3873 1 -32.7332 11.1225 1.32745 1 2.74371e-08 
3876 1 -30.3865 11.8647 1.69857 1 5.0358e-08 
4379 1 -28.6265 11.3083 0.0289755 1 1.03654e-07 
4407 1 -28.0398 12.6069 2.06967 1 1.12225e-07 
4409 1 -26.2799 12.0505 0.400095 1 2.36546e-07 
4413 1 -24.5198 10.3809 0.956784 1 5.11143e-07 
4894 1 -23.9331 12.7927 0.771142 1 5.08229e-07 
4925 1 -22.1731 11.1232 1.32798 1 1.22482e-06 
4928 1 -19.8263 11.8655 1.6991 1 2.63928e-06 
5366 1 -18.0669 11.3094 0.0299438 1 7.51157e-06 
5394 1 -17.479 12.6077 2.07 1 5.40557e-06 
5396 1 -15.7198 12.0519 0.401012 1 1.66987e-05 
5400 1 -13.959 10.3832 0.959585 1 4.38177e-05 
5773 1 -13.3716 12.7941 0.771516 1 3.578e-05 
5804 1 -11.6097 11.1265 1.33123 1 0.000122151 
5807 1 -9.25506 11.8691 1.70123 1 0.000711258 
6095 1 -7.50267 11.3183 0.0325422 1 0.00299338 
6123 1 -6.88647 12.6075 2.06556 1 0.00588729 
6125 1 -5.12027 12.0595 0.394734 1 0.0448313 
6129 1 -3.41589 10.3465 0.916415 1 0.357939 
6314 1 -2.67714 12.8289 0.695556 5 2.85784 
6344 1 -1.23479 11.0552 1.26069 5 9.12389 
7913 2 0.946303 10.4911 1.91072 1 0.66755 
7914 2 2.60058 12.2532 2.40423 1 0.105128 
8408 2 2.68665 11.0927 0.197178 1 0.155954 
8407 2 4.39238 12.8001 0.77067 1 0.00929657 
8410 2 5.00758 10.3824 0.579833 1 0.00753507 
8424 2 6.74697 12.0563 1.14589 1 0.000662421 
8942 2 9.09272 11.3118 1.51777 1 0.00015561 
8964 2 11.4404 10.5702 1.88821 1 2.57874e-05 
8965 2 13.1999 12.2415 2.44373 1 3.16532e-05 
9484 2 13.2041 11.1266 0.218981 1 1.81706e-05 
9483 2 14.9631 12.798 0.774344 1 1.0899e-05 
9486 2 15.5502 10.3855 0.589985 1 8.58698e-06 
9503 2 17.31 12.0563 1.14577 1 5.58936e-06 
10022 2 19.6571 11.3148 1.51708 1 2.82279e-06 
10044 2 22.0043 10.5732 1.88824 1 1.25854e-06 
10045 2 23.7645 12.2432 2.44474 1 1.17958e-06 
10563 2 25.525 12.8 0.775252 1 4.30701e-07 
10564 2 23.765 11.13 0.218702 1 4.86781e-07 
10566 2 26.1119 10.3883 0.589836 1 1.80002e-07 
1182 4 -61.48 14.2764 1.51318 5 6.1952 
1200 4 -59.1333 15.0185 1.88422 1 6.00101e-16 
1205 4 -57.3733 13.3488 2.44078 1 1.2003e-15 
1684 4 -57.3733 14.462 0.21454 1 1.39881e-15 
1686 4 -55.0266 15.204 0.585581 1 5.35193e-09 
1714 1 -53.2666 13.5344 1.14211 1 4.71764e-09 
2221 1 -50.92 14.2764 1.51308 1 3.16708e-09 
2249 1 -48.5733 15.0185 1.88407 1 3.26777e-09 
2254 1 -46.8133 13.3488 2.4406 1 6.13806e-09 
2761 1 -46.8133 14.4619 0.214358 1 2.47477e-09 
2763 1 -44.4666 15.204 0.585371 1 3.28739e-09 
2791 1 -42.7066 13.5343 1.14189 1 4.5765e-09 
3301 1 -40.3599 14.2763 1.5129 1 4.68871e-09 
3329 1 -38.0132 15.0184 1.88392 1 5.4683e-09 
3334 1 -36.2533 13.3487 2.44048 1 9.76796e-09 
3841 1 -36.2532 14.4618 0.214249 1 1.28731e-08 
3843 1 -33.9065 15.204 0.585294 1 2.08982e-08 
3871 1 -32.1465 13.5343 1.14192 1 2.36854e-08 
4377 1 -29.7998 14.2765 1.51301 1 5.02831e-08 
4405 1 -27.453 15.0187 1.88403 1 9.02225e-08 
4410 1 -25.6931 13.3491 2.4407 1 2.04433e-07 
4893 1 -25.6929 14.4623 0.214429 1 1.71855e-07 
4895 1 -23.3459 15.2046 0.585317 1 3.35853e-07 
4923 1 -21.5862 13.535 1.14207 1 9.98786e-07 
5364 1 -19.239 14.2771 1.51282 1 1.90799e-06 
5392 1 -16.8913 15.019 1.88323 1 4.79671e-06 
5397 1 -15.1309 13.3497 2.44046 1 1.14715e-05 
5772 1 -15.1311 14.4633 0.213693 1 8.21589e-06 
5774 1 -12.7824 15.2048 0.583882 1 2.82059e-05 
5802 1 -11.0218 13.5352 1.14126 1 0.000145049 
6093 1 -8.6709 14.2736 1.51075 1 0.00129519 
6121 1 -6.3313 15.0119 1.88913 1 0.0104341 
6126 1 -4.50459 13.3455 2.41931 1 0.0495777 
6313 1 -4.58304 14.467 0.227022 1 0.0649617 
6315 1 -2.26817 15.2405 0.64126 5 5.35529 
6342 1 0.0974186 12.8712 2.03852 5 4.5287 
6343 3 -0.16373 15.1977 1.91528 5 11.1177 
7910 2 2.0287 13.5849 0.405672 1 0.290692 
7911 2 3.81241 15.216 0.955159 1 0.0284949 
8422 2 6.15382 14.4684 1.33349 1 0.000846683 
7043 2 10.2714 14.2824 0.0319701 1 3.50482e-05 
8425 2 8.50413 13.7266 1.70201 1 0.000131831 
8449 2 10.2642 15.3977 2.25537 1 0.00038618 
8962 2 10.8516 12.9834 2.07275 1 8.10839e-05 
8960 2 12.6167 13.54 0.403062 1 2.30327e-05 
8961 2 14.3761 15.2109 0.958243 1 2.91497e-05 
9501 2 16.7232 14.4686 1.33015 1 1.30774e-05 
7857 2 20.8315 14.2835 0.0325643 1 1.71734e-06 
9504 2 19.0703 13.7267 1.70189 1 5.79511e-06 
9528 2 20.8312 15.3967 2.25833 1 2.58208e-06 
10040 2 23.1782 13.5417 0.403965 1 8.4512e-07 
10042 2 21.4174 12.9849 2.07341 1 2.59954e-06 
10041 2 24.9385 15.2117 0.960493 1 4.55213e-07 
1181 4 -63.24 15.9461 0.956621 5 30.976 
1183 4 -60.8933 16.6882 1.32766 1 9.99602e-16 
1680 4 -58.5466 17.4303 1.6987 1 9.00001e-16 
1681 4 -56.7866 15.7606 2.25526 1 7.00201e-16 
1682 4 -56.7866 16.8737 0.0290199 1 1.50157e-15 
2196 4 -54.44 17.6158 0.40006 1 1.20962e-08 
2220 1 -52.68 15.9461 0.956572 1 1.81073e-09 
2222 1 -50.3333 16.6882 1.32754 1 3.41837e-09 
2757 1 -47.9866 17.4303 1.69852 1 3.24337e-09 
2758 1 -46.2266 15.7606 2.25507 1 3.33626e-09 
2759 1 -46.2266 16.8737 0.0288269 1 3.13316e-09 
3276 1 -43.8799 17.6157 0.399845 1 6.92488e-09 
3300 1 -42.1199 15.946 0.956381 1 4.45049e-09 
3302 1 -39.7732 16.6881 1.32738 1 4.94798e-09 
3837 1 -37.4265 17.4302 1.6984 1 5.73357e-09 
3838 1 -35.6665 15.7605 2.25495 1 1.28637e-08 
3839 1 -35.6665 16.8736 0.0287222 1 1.4582e-08 
4352 1 -33.3197 17.6157 0.399751 1 2.60527e-08 
4376 1 -31.5597 15.9461 0.956356 1 3.35684e-08 
4378 1 -29.2129 16.6883 1.3274 1 7.30454e-08 
4889 1 -26.866 17.4305 1.69837 1 1.6486e-07 
4890 1 -25.1061 15.7609 2.25496 1 1.6375e-07 
4891 1 -25.1058 16.8741 0.028707 1 3.83116e-07 
5339 1 -22.7585 17.6163 0.399568 1 1.16605e-06 
5363 1 -20.9986 15.9467 0.956075 1 7.93676e-07 
5365 1 -18.651 16.6888 1.3267 1 2.26647e-06 
5768 1 -16.3032 17.4306 1.69726 1 5.66879e-06 
5769 1 -14.5432 15.7605 2.2534 1 1.69178e-05 
5770 1 -14.5417 16.8748 0.0275331 1 1.35662e-05 
6068 1 -12.1926 17.6166 0.398743 1 3.03097e-05 
6092 1 -10.4337 15.9455 0.954936 1 0.000153013 
6094 1 -8.08918 16.6868 1.32971 1 0.000902871 
6309 1 -5.74545 17.4257 1.70017 1 0.00637915 
6310 1 -4.00927 15.7502 2.28179 1 0.0871095 
6311 1 -3.94245 16.882 0.027646 1 0.0566676 
6420 1 -1.47032 17.5293 0.393382 5 2.38392 
7907 2 3.15988 17.6201 1.22368 1 0.272666 
7908 2 1.46023 16.0328 0.505057 5 1.96401 
7923 2 5.56318 16.8862 1.51343 1 0.0160036 
8420 2 7.91364 16.141 1.88458 1 0.0013458 
8421 2 9.68299 16.6967 0.214451 1 0.000172206 
8447 2 9.68025 17.8118 2.43554 1 0.000746012 
8958 2 12.0293 15.9537 0.586173 1 5.85064e-05 
8957 2 13.7899 17.6236 1.14207 1 3.97407e-05 
8986 2 16.1372 16.8809 1.51446 1 1.36576e-05 
9499 2 18.4843 16.1387 1.88654 1 5.68733e-06 
9500 2 20.2451 16.6954 0.217509 1 1.98634e-06 
9526 2 20.2452 17.8086 2.44342 1 2.26819e-06 
10038 2 22.5918 15.9535 0.58907 1 8.95267e-07 
10037 2 24.3521 17.6235 1.14573 1 3.53365e-07 
1179 4 -62.6533 18.3579 0.771101 5 18.5856 
1658 4 -60.3066 19.1 1.14214 1 6.99601e-16 
1678 4 -57.96 19.842 1.51318 1 6.00002e-16 
1683 4 -56.2 18.1724 2.06974 1 3.00101e-16 
2197 4 -53.8533 20.0276 0.21454 1 3.3327e-08 
2216 4 -53.8533 18.9144 2.44078 1 3.11803e-08 
2218 1 -52.0933 18.3579 0.771024 1 3.0059e-09 
2734 1 -49.7466 19.1 1.14197 1 5.2767e-09 
2755 1 -47.3999 19.842 1.51295 1 4.3949e-09 
2760 1 -45.6399 18.1723 2.06952 1 2.41824e-09 
3277 1 -43.2932 20.0275 0.214291 1 1.91812e-08 
3296 1 -43.2932 18.9144 2.44054 1 2.33311e-09 
3298 1 -41.5332 18.3578 0.770854 1 8.10118e-09 
3814 1 -39.1865 19.0998 1.14186 1 7.96545e-09 
3835 1 -36.8398 19.8419 1.51287 1 1.13413e-08 
3840 1 -35.0798 18.1723 2.06942 1 1.13498e-08 
4353 1 -32.733 20.0275 0.214209 1 6.79232e-08 
4372 1 -32.7331 18.9144 2.44042 1 3.27906e-08 
4374 1 -30.9729 18.3579 0.77079 1 8.48343e-08 
4866 1 -28.6261 19.1001 1.14181 1 2.01365e-07 
4887 1 -26.2791 19.8422 1.51281 1 5.18643e-07 
4892 1 -24.519 18.1726 2.06927 1 4.92734e-07 
5340 1 -22.1716 20.028 0.214188 1 2.63031e-06 
5359 1 -22.1718 18.9148 2.44016 1 1.22359e-06 
5361 1 -20.4111 18.3585 0.77044 1 3.12919e-06 
5745 1 -18.0633 19.1006 1.14141 1 6.87586e-06 
5766 1 -15.7154 19.8428 1.51253 1 1.42142e-05 
5771 1 -13.9553 18.1723 2.06802 1 1.09578e-05 
6069 1 -11.6039 20.029 0.214583 1 0.0001025 
6088 1 -11.6079 18.9142 2.43916 1 2.58887e-05 
6090 1 -9.84305 18.3589 0.771127 1 0.000145296 
6286 1 -7.48919 19.1007 1.14178 1 0.00125598 
6307 1 -5.14013 19.8501 1.51917 1 0.00803864 
6312 1 -3.42734 18.1715 2.0603 1 0.114888 
6421 1 -1.01908 20.0527 0.278739 5 2.66767 
6439 1 -1.11301 18.8376 2.41612 1 0.659173 
7466 2 0.798304 18.3731 0.822889 5 5.13212 
7467 2 2.57128 20.0616 1.32428 5 2.33746 
7921 2 4.94744 19.2988 1.69917 1 0.0284976 
6632 2 6.72837 19.8565 0.0332783 1 0.00376757 
7924 2 7.32668 18.5576 2.06062 1 0.00489878 
8419 2 9.08982 19.1112 0.397666 1 0.000680871 
8445 2 11.4413 18.3669 0.769537 1 0.000132166 
8446 2 13.2019 20.0348 1.32863 1 4.2137e-05 
8984 2 15.5509 19.2926 1.69997 1 1.52905e-05 
7084 2 17.3114 19.849 0.0314465 1 6.07926e-06 
8987 2 17.8983 18.5505 2.0717 1 5.6892e-06 
9498 2 19.6587 19.1072 0.402843 1 2.18907e-06 
9524 2 22.0055 18.3653 0.774297 1 8.54134e-07 
9525 2 23.7657 20.0352 1.33117 1 4.63251e-07 
10064 2 26.1123 19.2934 1.70247 1 2.11164e-07 
1657 4 -62.0666 20.7696 0.585581 5 12.3904 
1659 4 -59.72 21.5117 0.956621 1 1.996e-16 
2191 4 -57.3733 22.2538 1.32766 1 6.99602e-16 
2192 4 -55.6133 20.5841 1.88422 1 2.71267e-09 
2194 4 -55.0266 22.9959 1.6987 1 1.22108e-08 
2214 1 -53.2666 21.3262 2.25521 1 5.37811e-09 
2716 1 -53.2666 22.4393 0.0289678 1 5.96243e-09 
2733 1 -51.5066 20.7696 0.585459 1 2.68791e-09 
2735 1 -49.16 21.5117 0.956408 1 6.99889e-09 
3271 1 -46.8133 22.2537 1.3274 1 4.35661e-09 
3272 1 -45.0532 20.584 1.88396 1 6.39895e-09 
3274 1 -44.4666 22.9958 1.6984 1 8.4232e-09 
3294 1 -42.7066 21.3261 2.25499 1 6.47613e-09 
3796 1 -42.7066 22.4392 0.0287406 1 2.52248e-09 
3813 1 -40.9465 20.7695 0.585321 1 1.43289e-08 
3815 1 -38.5998 21.5116 0.956336 1 1.42181e-08 
4347 1 -36.2531 22.2537 1.32736 1 1.85088e-08 
4348 1 -34.4931 20.584 1.88389 1 2.80959e-08 
4350 1 -33.9064 22.9958 1.6984 1 2.68608e-08 
4370 1 -32.1463 21.3262 2.25491 1 6.13808e-08 
4848 1 -32.1464 22.4393 0.0287291 1 3.9242e-08 
4865 1 -30.3862 20.7697 0.585264 1 1.26712e-07 
4867 1 -28.0394 21.5118 0.956344 1 2.5698e-07 
5334 1 -25.6925 22.254 1.32745 1 5.3279e-07 
5335 1 -23.9321 20.5844 1.88385 1 1.15387e-06 
5337 1 -23.3456 22.9962 1.69866 1 1.1815e-06 
5357 1 -21.5849 21.3266 2.25497 1 2.54123e-06 
5727 1 -21.5854 22.4399 0.0291383 1 2.12143e-06 
5744 1 -19.8242 20.7703 0.585401 1 6.26506e-06 
5746 1 -17.4766 21.5126 0.956829 1 1.62625e-05 
6063 1 -15.1287 22.2552 1.32848 1 4.55924e-05 
6064 1 -13.3674 20.5851 1.8838 1 3.13104e-05 
6066 1 -12.7803 22.9982 1.70022 1 0.000135808 
6086 1 -11.019 21.3276 2.25457 1 8.07491e-05 
6268 1 -11.0176 22.4414 0.0308085 1 0.000452338 
6285 1 -9.25233 20.7708 0.585213 1 0.000325839 
6287 1 -6.9033 21.5151 0.956379 1 0.000753159 
6415 1 -4.54853 22.2526 1.32414 1 0.00927631 
6416 1 -2.76831 20.5991 1.92246 1 0.103753 
6418 1 -2.22631 22.9963 1.73006 1 0.42724 
6469 1 -0.364988 22.4313 0.170333 5 7.13069 
7464 2 -0.266405 21.2195 2.28763 5 4.51033 
7463 2 1.93653 22.4007 1.49769 5 4.85925 
7477 2 4.33746 21.6965 1.90738 1 0.0495618 
7918 2 6.12502 22.2546 0.224773 1 0.00775309 
7919 2 6.71925 20.9591 2.26128 1 0.00585126 
7920 2 8.49081 21.5173 0.591475 1 0.00147713 
8443 2 10.8496 20.7767 0.958485 1 0.000204519 
8442 2 12.6142 22.4441 1.51708 1 4.10474e-05 
8479 2 14.9635 21.7034 1.88719 1 1.14621e-05 
8981 2 16.7241 22.2598 0.218153 1 4.97971e-06 
8982 2 17.3116 20.9619 2.25792 1 5.51672e-06 
8983 2 19.0718 21.5185 0.588877 1 1.85079e-06 
9521 2 23.1788 22.4468 1.51689 1 3.99127e-07 
9522 2 21.4189 20.7769 0.959936 1 9.21295e-07 
9558 2 25.5256 21.7051 1.88802 1 2.41795e-07 
1653 4 -63.24 23.738 2.06974 5 30.976 
1655 4 -61.48 23.1814 0.40006 5 6.1952 
1656 4 -60.8933 24.48 2.44078 1 6.00301e-16 
2175 4 -60.8933 25.5932 0.21454 1 1.49881e-15 
2176 4 -59.1333 23.9235 0.771101 1 8.994e-16 
2189 4 -56.7866 24.6656 1.14214 1 3.99602e-16 
2714 4 -54.44 25.4076 1.51318 1 2.29898e-08 
2729 1 -52.68 23.738 2.06966 1 2.34865e-09 
2731 1 -50.92 23.1814 0.399902 1 4.14576e-09 
2732 1 -50.3333 24.4801 2.44061 1 4.61676e-09 
3255 1 -50.3333 25.5932 0.214375 1 3.46452e-09 
3256 1 -48.5733 23.9235 0.770867 1 6.50106e-09 
3269 1 -46.2266 24.6655 1.14186 1 6.35867e-09 
3794 1 -43.8799 25.4075 1.51288 1 9.6983e-09 
3809 1 -42.1199 23.7379 2.06944 1 1.43843e-09 
3811 1 -40.3599 23.1813 0.399776 1 3.07499e-09 
3812 1 -39.7732 24.4799 2.44048 1 2.98424e-09 
4331 1 -39.7733 25.5931 0.214231 1 8.27461e-09 
4332 1 -38.0132 23.9234 0.77082 1 9.72404e-09 
4345 1 -35.6665 24.6655 1.14187 1 1.28859e-08 
4846 1 -33.3198 25.4076 1.51294 1 2.58525e-08 
4861 1 -31.5597 23.7379 2.06948 1 4.90178e-08 
4863 1 -29.7997 23.1814 0.399849 1 8.4128e-08 
4864 1 -29.213 24.4801 2.44061 1 1.15955e-07 
5318 1 -29.2131 25.5932 0.21444 1 9.63532e-08 
5319 1 -27.4529 23.9236 0.770986 1 1.81581e-07 
5332 1 -25.1062 24.6658 1.14218 1 4.26787e-07 
5725 1 -22.7594 25.4081 1.51346 1 9.63248e-07 
5740 1 -20.9987 23.7385 2.07001 1 2.6091e-06 
5742 1 -19.2384 23.1822 0.400676 1 5.25739e-06 
5743 1 -18.6517 24.481 2.44155 1 5.76589e-06 
6047 1 -18.653 25.5942 0.215733 1 5.35516e-06 
6048 1 -16.8913 23.9248 0.772525 1 1.39639e-05 
6061 1 -14.5441 24.6678 1.14483 1 4.12724e-05 
6266 1 -12.1966 25.4116 1.51784 1 0.000158088 
6281 1 -10.4316 23.742 2.07189 1 0.000386016 
6283 1 -8.66783 23.1852 0.401925 1 0.00147195 
6284 1 -8.08108 24.486 2.44245 1 0.00134138 
6399 1 -8.09991 25.6003 0.224067 1 0.00272809 
6400 1 -6.31462 23.9284 0.771519 1 0.00629066 
6413 1 -3.96737 24.6698 1.16142 1 0.203981 
6438 3 -0.00369152 23.5462 2.40917 5 11.1534 
6467 1 -1.251 25.3606 1.42892 5 6.10838 
7096 2 1.58983 24.9081 1.61213 5 4.71532 
7473 2 5.57681 24.6633 0.389392 1 0.0093205 
7475 2 3.84185 24.101 2.04513 1 0.0867882 
7478 2 6.16399 23.3634 2.43779 1 0.0103836 
7917 2 7.91695 23.9231 0.772419 1 0.00136276 
7946 2 9.6824 25.5949 1.33082 1 0.000249472 
7948 2 10.264 23.1838 1.14709 1 0.00025765 
7949 2 12.028 24.8544 1.70348 1 6.60889e-05 
6805 2 13.79 25.4111 0.0341657 1 3.54906e-05 
8477 2 14.3758 24.114 2.07419 1 1.6679e-05 
8475 2 16.1371 24.6706 0.404663 1 1.03351e-05 
8480 2 16.7238 23.3731 2.44461 1 4.74969e-06 
8980 2 18.4845 23.9297 0.775173 1 2.71481e-06 
9014 2 20.2443 25.5999 1.33177 1 1.29083e-06 
9016 2 20.8317 23.1884 1.14592 1 8.56652e-07 
9017 2 22.5915 24.8584 1.70269 1 4.23746e-07 
7449 2 24.352 25.4152 0.0331676 1 2.0771e-07 
9556 2 24.9386 24.1168 2.07372 1 1.61021e-07 
1651 4 -62.6533 26.1497 1.88422 5 18.5856 
2172 4 -60.3066 26.8918 2.25526 1 8.002e-16 
2173 4 -60.3066 28.0049 0.0290199 1 1.10157e-15 
2177 4 -58.5466 26.3352 0.585581 1 1.29951e-15 
2713 4 -56.2 27.0773 0.956621 1 4.996e-16 
2715 4 -53.8533 27.8194 1.32766 1 3.00075e-08 
2727 1 -52.0933 26.1497 1.88413 1 3.75479e-09 
3252 1 -49.7466 26.8918 2.2551 1 3.80309e-09 
3253 1 -49.7466 28.0049 0.0288653 1 6.7457e-09 
3257 1 -47.9866 26.3352 0.585365 1 2.68092e-09 
3793 1 -45.64 27.0773 0.956367 1 1.1234e-09 
3795 1 -43.2933 27.8193 1.32737 1 6.65539e-09 
3807 1 -41.5333 26.1496 1.8839 1 7.84167e-09 
4328 1 -39.1866 26.8917 2.25496 1 6.73345e-09 
4329 1 -39.1866 28.0048 0.0287197 1 1.42916e-08 
4333 1 -37.4266 26.3351 0.585306 1 1.03601e-08 
4845 1 -35.0799 27.0772 0.956364 1 1.63804e-08 
4847 1 -32.7332 27.8194 1.32745 1 2.74371e-08 
4859 1 -30.9731 26.1497 1.88405 1 5.24289e-08 
5315 1 -28.6265 26.8919 2.25519 1 1.04977e-07 
5316 1 -28.6265 28.0051 0.0289755 1 1.03654e-07 
5320 1 -26.8665 26.3355 0.585601 1 1.97605e-07 
5724 1 -24.5198 27.0777 0.956784 1 5.11143e-07 
5726 1 -22.1731 27.82 1.32798 1 1.22482e-06 
5738 1 -20.4127 26.1505 1.88486 1 2.30225e-06 
6044 1 -18.0658 26.893 2.25632 1 5.7019e-06 
6045 1 -18.0669 28.0062 0.0299438 1 7.51157e-06 
6049 1 -16.3063 26.3369 0.587578 1 1.49752e-05 
6265 1 -13.959 27.08 0.959585 1 4.38177e-05 
6267 1 -11.6097 27.8233 1.33123 1 0.000122151 
6279 1 -9.84763 26.1563 1.89163 1 0.000746543 
6396 1 -7.49397 26.9027 2.26629 1 0.00490678 
6397 1 -7.50267 28.0151 0.0325422 1 0.00299338 
6401 1 -5.76601 26.3467 0.598546 1 0.0252204 
6466 1 -3.41589 27.0433 0.916415 1 0.357939 
6468 1 -1.23479 27.752 1.26069 5 9.12389 
7094 2 0.946303 27.1879 1.91072 1 0.66755 
7095 2 2.68665 27.7896 0.197178 1 0.155954 
7103 2 3.26032 26.5223 2.26635 1 0.114684 
7471 2 5.00758 27.0793 0.579833 1 0.00753507 
7474 2 7.3394 26.336 0.957601 1 0.00091056 
7497 2 9.09272 28.0086 1.51777 1 0.00015561 
7944 2 11.4404 27.267 1.88821 1 2.57874e-05 
7945 2 13.2041 27.8234 0.218981 1 1.81706e-05 
7987 2 13.7879 26.5257 2.25954 1 1.08337e-05 
8473 2 15.5502 27.0823 0.589985 1 8.58698e-06 
8476 2 17.8971 26.3412 0.9609 1 3.60821e-06 
8514 2 19.6571 28.0116 1.51708 1 2.82279e-06 
9012 2 22.0043 27.27 1.88824 1 1.25854e-06 
9013 2 23.765 27.8268 0.218702 1 4.86781e-07 
9055 2 24.3514 26.5284 2.25935 1 4.90056e-07 
9552 2 26.1119 27.0852 0.589836 1 1.80002e-07 
2171 4 -62.0666 28.5615 1.6987 5 18.5856 
2174 4 -59.72 29.3036 2.06974 1 7.00101e-16 
2704 4 -57.96 28.747 0.40006 1 1.09911e-15 
2709 4 -57.3733 30.0457 2.44078 1 9.003e-16 
2711 4 -55.6133 29.4891 0.771101 1 1.22091e-09 
3243 1 -53.2666 30.2312 1.14211 1 4.71794e-09 
3251 1 -51.5066 28.5615 1.6986 1 5.61368e-09 
3254 1 -49.16 29.3036 2.06959 1 4.25384e-09 
3784 1 -47.4 28.747 0.399871 1 1.82625e-09 
3789 1 -46.8133 30.0456 2.4406 1 6.13801e-09 
3791 1 -45.0533 29.489 0.770878 1 2.44775e-09 
4319 1 -42.7066 30.2311 1.14189 1 4.57649e-09 
4327 1 -40.9466 28.5614 1.6984 1 6.68281e-09 
4330 1 -38.5999 29.3034 2.06943 1 1.02133e-08 
4836 1 -36.8399 28.7469 0.39977 1 1.09974e-08 
4841 1 -36.2533 30.0455 2.44048 1 9.76801e-09 
4843 1 -34.4932 29.489 0.770839 1 2.02078e-08 
5306 1 -32.1465 30.2312 1.14192 1 2.36854e-08 
5314 1 -30.3865 28.5615 1.69857 1 5.0358e-08 
5317 1 -28.0398 29.3037 2.06967 1 1.12225e-07 
5715 1 -26.2799 28.7473 0.400095 1 2.36546e-07 
5720 1 -25.6931 30.0459 2.4407 1 2.04433e-07 
5722 1 -23.9331 29.4896 0.771142 1 5.08229e-07 
6035 1 -21.5862 30.2318 1.14207 1 9.98786e-07 
6043 1 -19.8263 28.5623 1.6991 1 2.63928e-06 
6046 1 -17.479 29.3046 2.07 1 5.40557e-06 
6256 1 -15.7198 28.7487 0.401012 1 1.66987e-05 
6261 1 -15.1309 30.0465 2.44046 1 1.14715e-05 
6263 1 -13.3716 29.4909 0.771516 1 3.578e-05 
6387 1 -11.0218 30.232 1.14126 1 0.000145049 
6395 1 -9.25506 28.5659 1.70123 1 0.000711258 
6398 1 -6.88647 29.3043 2.06556 1 0.00588729 
6457 1 -5.12027 28.7563 0.394734 1 0.0448313 
6462 1 -4.50459 30.0423 2.41931 1 0.0495777 
6464 1 -2.67714 29.5258 0.695556 5 2.85784 
6475 1 0.0974186 29.568 2.03852 5 4.5287 
7093 2 2.0287 30.2818 0.405672 1 0.290692 
7101 2 2.60058 28.95 2.40423 1 0.105128 
7099 2 4.39238 29.4969 0.77067 1 0.00929657 
7470 2 6.74697 28.7532 1.14589 1 0.000662421 
7495 2 8.50413 30.4234 1.70201 1 0.000131831 
7498 2 10.8516 29.6803 2.07275 1 8.10839e-05 
7943 2 12.6167 30.2368 0.403062 1 2.30327e-05 
7985 2 13.1999 28.9383 2.44373 1 3.16532e-05 
7983 2 14.9631 29.4949 0.774344 1 1.0899e-05 
8472 2 17.31 28.7532 1.14577 1 5.58936e-06 