ITEM: TIMESTEP
0
ITEM: NUMBER OF ATOMS
32592
ITEM: BOX BOUNDS ss pp pp
-68.7753 114.668
0 38.5597
0 50.2757
ITEM: ATOMS id type x y z c_cna c_csd 
2939 4 -68.5052 0.766652 0.399281 5 30.976 
3723 4 -66.2104 1.73064 0.399281 1 3.00005e-16 
3724 4 -64.4556 0.766652 1.87798 1 6.00011e-16 
3745 4 -62.1608 1.73064 1.87798 1 1.00004e-16 
4590 4 -60.271 0.445321 0.89218 1 3.88623e-08 
4591 1 -57.9763 1.40931 0.892037 1 4.18791e-09 
4626 1 -56.2215 0.445337 2.37059 1 1.67056e-09 
5490 1 -55.6815 2.37332 0.891847 1 2.28706e-09 
5491 1 -53.9267 1.40935 2.37039 1 1.60562e-09 
5494 1 -52.0369 0.124062 1.38442 1 6.64739e-09 
5533 1 -51.6319 2.37338 2.37019 1 8.0504e-09 
6401 1 -49.7422 1.0881 1.38426 1 1.09323e-08 
6404 1 -47.4474 2.05212 1.38417 1 1.78776e-09 
7285 1 -45.5576 0.766803 0.398283 1 3.14603e-09 
7310 1 -43.2629 1.73082 0.398186 1 3.8495e-09 
7313 1 -41.508 0.766849 1.87683 1 1.04106e-09 
8195 1 -39.2133 1.73086 1.87675 1 2.2416e-09 
8197 1 -37.3235 0.445535 0.890886 1 6.08951e-09 
8978 1 -35.0287 1.4095 0.890822 1 5.99943e-09 
9010 1 -33.2739 0.445472 2.36945 1 9.45526e-09 
9008 1 -32.734 2.37346 0.890725 1 4.09106e-09 
9011 1 -30.9792 1.40945 2.36932 1 2.54467e-09 
9697 1 -29.0894 0.1241 1.38339 1 6.1088e-09 
9729 1 -28.6844 2.37342 2.36916 1 6.65143e-09 
9731 1 -26.7946 1.08805 1.38319 1 3.0936e-09 
10324 1 -24.4999 2.05199 1.38295 1 5.36934e-09 
10328 1 -22.6101 0.766605 0.396929 1 1.27851e-08 
10865 1 -20.3153 1.7305 0.396641 1 1.24075e-07 
10866 1 -18.5605 0.766392 1.87507 1 3.57379e-07 
10904 1 -16.2659 1.73025 1.87469 1 2.42764e-06 
11316 1 -14.3757 0.444496 0.888633 1 9.73576e-06 
11317 1 -12.0826 1.40908 0.888617 1 3.23508e-05 
11356 1 -10.3288 0.443483 2.36711 1 0.000325504 
11672 1 -9.79216 2.37624 0.887941 1 0.000335255 
11673 1 -8.04663 1.41355 2.36741 1 0.00212767 
11676 1 -6.17717 0.113969 1.38592 1 0.0269487 
11715 1 -5.76549 2.38615 2.36652 1 0.0179027 
11941 1 -3.93884 1.03295 1.40489 1 0.437649 
11944 1 -1.84866 1.96288 1.40585 5 10.5958 
12092 1 -0.0124901 1.38766 0.0945209 5 5.72885 
12308 2 0.149058 1.7407 2.60891 2 5.75185 
12496 2 2.34322 0.742401 2.59098 1 0.0910423 
17317 2 2.17212 0.39676 0.163489 1 0.121599 
12497 2 4.09914 1.72083 1.12478 1 0.00890004 
12514 2 6.40449 0.76498 1.13115 1 0.00025999 
12785 2 8.29749 2.05101 2.11532 1 5.77257e-05 
12788 2 10.5938 1.08754 2.11642 1 1.50922e-05 
12800 2 12.3481 2.05083 0.637508 1 3.20025e-06 
13160 2 12.8886 0.123137 2.1165 1 3.24726e-06 
13161 2 14.6431 1.08684 0.637519 1 7.5747e-07 
13165 2 16.5328 2.37201 1.62304 1 2.61915e-07 
13174 2 16.9378 0.122619 0.63725 1 7.14744e-08 
13626 2 18.8276 1.40785 1.62278 1 3.78657e-08 
13628 2 21.1223 0.443723 1.62252 1 9.13226e-09 
20924 2 20.5824 2.37175 0.143885 1 1.97727e-08 
20963 2 22.8772 1.40766 0.143663 1 2.97616e-09 
2941 4 -68.1002 3.01597 1.38508 5 18.5856 
3720 4 -65.8055 3.97996 1.38508 1 6.00002e-16 
3726 4 -63.9157 2.69464 0.399281 1 8.99961e-16 
3741 4 -63.5107 4.94395 1.38508 1 2.00001e-16 
4586 4 -61.6209 3.65863 0.399281 1 9.00001e-16 
4587 4 -59.8661 2.69464 1.87798 1 7.03138e-08 
4589 4 -59.3261 4.62262 0.399281 1 1.14963e-07 
4622 1 -57.5713 3.65864 1.8778 1 2.68719e-09 
5487 1 -55.2766 4.62266 1.87761 1 1.67362e-09 
5493 1 -53.3868 3.33734 0.891647 1 1.69638e-09 
6397 1 -51.092 4.30137 0.891453 1 1.15573e-08 
6398 1 -49.3372 3.33742 2.37005 1 2.37686e-09 
6442 1 -47.0424 4.30144 2.36995 1 2.74282e-09 
7308 1 -45.1527 3.01613 1.38406 1 2.71725e-09 
7311 1 -42.8579 3.98014 1.38398 1 8.83742e-10 
8166 1 -40.9681 2.69483 0.398119 1 1.7068e-09 
8191 1 -40.5632 4.94416 1.3839 1 1.35865e-09 
8193 1 -38.6734 3.65883 0.398036 1 2.60729e-09 
8198 1 -36.9185 2.69484 1.87668 1 3.34096e-09 
8975 1 -36.3786 4.62282 0.397968 1 1.48875e-09 
9006 1 -34.6238 3.65881 1.87661 1 3.96651e-09 
9009 1 -32.329 4.62278 1.8765 1 2.65917e-09 
9694 1 -30.4392 3.33744 0.890595 1 8.51916e-09 
9727 1 -28.1445 4.30139 0.89042 1 7.32338e-09 
9732 1 -26.3897 3.33736 2.36895 1 4.38768e-09 
10358 1 -24.0949 4.30128 2.36872 1 9.28799e-09 
10360 1 -22.2051 3.01589 1.38269 1 2.57623e-08 
10862 1 -19.9104 3.97984 1.38243 1 9.09029e-08 
10868 1 -18.0206 2.69443 0.396328 1 4.27598e-07 
10900 1 -17.6159 4.94385 1.38218 1 8.47731e-07 
11312 1 -15.7264 3.65863 0.396016 1 3.18089e-06 
11313 1 -13.9721 2.69464 1.87446 1 1.07112e-05 
11315 1 -13.4321 4.62295 0.395465 1 2.0022e-05 
11352 1 -11.6791 3.66008 1.8742 1 9.80965e-05 
11669 1 -9.3829 4.62548 1.87287 1 0.000465621 
11675 1 -7.4988 3.34476 0.885375 1 0.00231265 
11937 1 -5.1951 4.31132 0.857231 1 0.0366441 
11938 1 -3.50144 3.3809 2.34149 5 2.51411 
12091 1 -0.48325 3.77614 1.14882 5 3.70837 
12311 2 1.45056 4.96258 2.10997 1 0.046911 
12323 2 1.82821 2.70636 1.12697 1 0.0341791 
12499 2 3.71619 3.98274 2.11811 1 0.00288305 
12500 2 5.47021 4.9459 0.638508 1 0.000607407 
12502 2 6.00057 3.01299 2.11206 1 0.00112771 
12515 2 7.75791 3.97773 0.636428 1 0.000252359 
12786 2 10.0524 3.0142 0.637004 1 4.09319e-05 
12791 2 11.9424 4.29989 1.62322 1 9.72885e-06 
13163 2 14.2378 3.3361 1.62319 1 1.11139e-06 
13164 2 16.1277 4.62125 2.60885 1 3.38927e-07 
20016 2 15.9928 4.29989 0.144365 1 1.38907e-07 
13596 2 18.4226 3.65718 2.60861 1 6.86311e-08 
13629 2 20.1774 4.62106 1.12971 1 1.37704e-08 
20052 2 18.2877 3.33583 0.14413 1 2.4451e-08 
13627 2 20.7174 2.69307 2.60837 1 1.44526e-08 
13631 2 22.4722 3.657 1.1295 1 7.3957e-09 
2942 4 -67.6953 5.26528 2.37088 5 18.5856 
3717 4 -67.1553 7.19326 0.89218 5 12.3904 
3739 4 -65.4005 6.22927 2.37088 1 5.00399e-16 
3742 4 -63.1057 7.19326 2.37088 1 9.00401e-16 
4583 4 -61.2159 5.90794 1.38508 1 1.1e-15 
4618 4 -58.9212 6.87193 1.38508 1 1.7346e-07 
5486 1 -57.0314 5.58664 0.399062 1 1.09096e-08 
5489 1 -54.7366 6.55064 0.398865 1 2.02517e-09 
5529 1 -52.9818 5.58667 1.8774 1 5.76766e-09 
6393 1 -52.4419 7.51465 0.398656 1 6.13739e-09 
6394 1 -50.6871 6.5507 1.87722 1 1.1576e-08 
6400 1 -48.7973 5.2654 0.891337 1 9.88663e-10 
6438 1 -48.3923 7.51472 1.87711 1 4.83359e-10 
7304 1 -46.5025 6.22942 0.891231 1 1.19765e-09 
7305 1 -44.7477 5.26545 2.36984 1 3.49942e-09 
7307 1 -44.2078 7.19344 0.891127 1 2.1187e-09 
7350 1 -42.453 6.22948 2.36976 1 3.77813e-09 
8188 1 -40.1582 7.19348 2.36968 1 2.82571e-09 
8194 1 -38.2684 5.90816 1.38381 1 3.7765e-09 
9002 1 -35.9737 6.87214 1.38375 1 3.55391e-09 
9004 1 -34.0839 5.58679 0.397887 1 2.42477e-09 
9691 1 -31.7891 6.55075 0.397772 1 3.93655e-09 
9723 1 -29.4943 7.51471 0.397621 1 4.90538e-09 
9725 1 -30.0343 5.58674 1.87636 1 5.45511e-09 
9728 1 -27.7395 6.55069 1.87618 1 3.47848e-09 
10321 1 -25.8497 5.26532 0.890196 1 3.01842e-09 
10354 1 -25.4448 7.51462 1.87597 1 5.03766e-09 
10356 1 -23.555 6.22926 0.889972 1 7.58788e-09 
10361 1 -21.8002 5.26521 2.36847 1 2.91033e-08 
10859 1 -21.2602 7.19322 0.889707 1 5.35739e-08 
10898 1 -19.5055 6.22918 2.36824 1 2.21104e-07 
10901 1 -17.2107 7.19308 2.36792 1 7.61432e-07 
11309 1 -15.3212 5.9078 1.38188 1 4.48653e-06 
11348 1 -13.0257 6.87088 1.38141 1 1.83594e-05 
11668 1 -11.136 5.58627 0.394165 1 5.9711e-05 
11671 1 -8.83605 6.54622 0.391534 1 0.00096245 
11711 1 -7.07412 5.58721 1.86665 1 0.00617777 
11933 1 -6.53793 7.5055 0.402836 1 0.00881777 
11934 1 -4.72618 6.53451 1.89231 1 0.0889148 
11940 1 -2.8482 5.24557 0.898252 5 5.43976 
11978 1 -2.45618 7.6035 1.84563 5 4.42183 
12107 1 -0.799103 6.00106 2.09922 5 7.56947 
12309 2 0.914214 6.90666 0.637473 5 5.02306 
12324 2 3.18314 5.91495 0.632782 1 0.00513799 
12503 2 5.05716 7.19607 1.62785 1 0.00167606 
12505 2 7.35316 6.2294 1.62634 1 0.000188528 
12754 2 9.24364 7.51378 2.6107 1 2.40283e-05 
12789 2 9.64703 5.26378 1.62372 1 4.56203e-05 
18233 2 9.11017 7.19345 0.146706 1 9.2969e-05 
12790 2 11.5376 6.54909 2.60956 1 1.05612e-05 
19106 2 11.4036 6.22821 0.145225 1 8.00249e-06 
12794 2 13.2931 7.5134 1.13076 1 1.73917e-06 
13130 2 13.8325 5.58517 2.6091 1 2.79537e-06 
19142 2 13.6979 5.26389 0.14462 1 1.72381e-06 
13166 2 15.5877 6.54918 1.13029 1 5.48352e-07 
13168 2 17.8826 5.58512 1.12997 1 7.65098e-08 
13600 2 19.7724 6.87036 2.11555 1 4.24143e-08 
13630 2 22.0672 5.90631 2.11533 1 5.46338e-09 
3735 4 -66.7504 9.44258 1.87798 5 6.1952 
3737 4 -64.8606 8.15725 0.89218 1 6.00804e-16 
4580 4 -62.5658 9.12125 0.89218 1 1.19601e-15 
4614 4 -60.271 10.0852 0.89218 1 3.88622e-08 
4616 4 -60.811 8.15725 2.37088 1 7.84515e-09 
4619 1 -58.5162 9.12125 2.37079 1 2.41581e-08 
5483 1 -56.6264 7.83595 1.38483 1 2.66371e-09 
5523 1 -56.2215 10.0853 2.37059 1 1.67059e-09 
5525 1 -54.3317 8.79995 1.38462 1 3.58952e-09 
6390 1 -52.0369 9.76398 1.38442 1 6.64742e-09 
6396 1 -50.1471 8.47868 0.398492 1 1.1317e-08 
7300 1 -47.8524 9.44271 0.398394 1 1.76308e-09 
7301 1 -46.0976 8.47875 1.87701 1 1.05534e-09 
7346 1 -43.8028 9.44276 1.87691 1 1.14308e-09 
8187 1 -41.913 8.15746 0.891039 1 2.07175e-09 
8190 1 -39.6183 9.12147 0.89096 1 3.67835e-09 
8233 1 -37.8634 8.15747 2.3696 1 2.59446e-09 
8998 1 -37.3235 10.0855 0.890886 1 6.08954e-09 
8999 1 -35.5687 9.12144 2.36954 1 6.75971e-09 
9005 1 -33.6789 7.83609 1.38366 1 2.72701e-09 
9045 1 -33.2739 10.0854 2.36945 1 9.45529e-09 
9721 1 -31.3841 8.80005 1.38354 1 2.04753e-09 
9724 1 -29.0894 9.76402 1.38339 1 6.1088e-09 
10318 1 -27.1996 8.47866 0.397428 1 2.33972e-09 
10352 1 -24.9048 9.4426 0.397207 1 6.27923e-09 
10357 1 -23.15 8.47857 1.87572 1 1.5702e-08 
10894 1 -20.8553 9.44249 1.87542 1 5.39869e-08 
10896 1 -18.9654 8.15711 0.889403 1 1.27421e-07 
11306 1 -16.6704 9.1208 0.888992 1 1.05274e-06 
11344 1 -14.3757 10.0844 0.888633 1 9.73576e-06 
11346 1 -14.9156 8.15661 2.36745 1 2.64883e-06 
11349 1 -12.6205 9.11948 2.36689 1 5.05797e-05 
11665 1 -10.7294 7.83166 1.38114 1 0.000316229 
11705 1 -10.3288 10.0834 2.36711 1 0.000325503 
11707 1 -8.43931 8.79068 1.38524 1 0.00336747 
11930 1 -6.17717 9.75389 1.38592 1 0.0269489 
11936 1 -4.26638 8.47707 0.392226 1 0.0554396 
12106 1 -1.91791 9.46861 0.37816 5 4.59464 
12312 2 0.230803 9.05036 1.64376 5 6.36092 
17289 2 2.17212 10.0367 0.163489 1 0.1216 
12314 2 2.74715 8.16194 1.63992 1 0.0666923 
12467 2 4.65269 9.4414 2.6118 1 0.00204801 
17323 2 4.51144 9.11848 0.15172 1 0.00549443 
12504 2 6.95014 8.47909 2.61102 1 0.000170665 
18197 2 6.81509 8.15858 0.1484 1 0.000561059 
12508 2 8.70367 9.4426 1.13181 1 6.66957e-05 
12792 2 10.9988 8.47801 1.13147 1 1.49052e-05 
12793 2 12.8886 9.76305 2.1165 1 3.24726e-06 
13134 2 15.183 8.79864 2.11618 1 2.7239e-07 
13167 2 17.4776 7.83444 2.11583 1 1.51842e-07 
13169 2 16.9378 9.76254 0.63725 1 7.14746e-08 
13171 2 19.2325 8.79838 0.636944 1 2.42508e-08 
13604 2 21.1223 10.0836 1.62252 1 9.13224e-09 
13632 2 21.5273 7.83429 0.636685 1 1.4493e-08 
3715 4 -68.5052 10.4066 0.399281 5 30.976 
3731 4 -68.1002 12.6559 1.38508 5 18.5856 
3733 4 -66.2104 11.3706 0.399281 1 7.98404e-16 
3738 4 -64.4556 10.4066 1.87798 1 8.98409e-16 
4577 4 -63.9157 12.3346 0.399281 1 1.1e-15 
4612 4 -62.1608 11.3706 1.87798 1 5.98404e-16 
4615 4 -59.8661 12.3346 1.87798 1 7.03129e-08 
5480 1 -57.9763 11.0492 0.892037 1 4.18807e-09 
5521 1 -55.6815 12.0132 0.891847 1 2.287e-09 
5526 1 -53.9267 11.0493 2.37039 1 1.60562e-09 
6432 1 -51.6319 12.0133 2.37019 1 8.05038e-09 
6434 1 -49.7422 10.728 1.38426 1 1.09323e-08 
7297 1 -47.4474 11.692 1.38417 1 1.78779e-09 
7303 1 -45.5576 10.4067 0.398283 1 3.14603e-09 
7342 1 -45.1527 12.656 1.38406 1 2.71727e-09 
8183 1 -43.2629 11.3707 0.398186 1 3.8495e-09 
8184 1 -41.508 10.4068 1.87683 1 1.04106e-09 
8186 1 -40.9681 12.3347 0.398119 1 1.7068e-09 
8229 1 -39.2133 11.3708 1.87675 1 2.24161e-09 
8995 1 -36.9185 12.3348 1.87668 1 3.34097e-09 
9001 1 -35.0287 11.0494 0.890822 1 5.99948e-09 
9717 1 -32.734 12.0134 0.890725 1 4.09103e-09 
9718 1 -30.9792 11.0494 2.36932 1 2.54468e-09 
9765 1 -28.6844 12.0133 2.36916 1 6.65145e-09 
10350 1 -26.7946 10.728 1.38319 1 3.09361e-09 
10353 1 -24.4999 11.6919 1.38295 1 5.36933e-09 
10856 1 -22.6101 10.4065 0.396929 1 1.27851e-08 
10890 1 -22.2051 12.6558 1.38269 1 2.57623e-08 
10892 1 -20.3153 11.3704 0.396641 1 1.24075e-07 
10897 1 -18.5605 10.4063 1.87507 1 3.57379e-07 
11303 1 -18.0206 12.3344 0.396328 1 4.27598e-07 
11342 1 -16.2659 11.3702 1.87469 1 2.42764e-06 
11345 1 -13.9721 12.3346 1.87446 1 1.07112e-05 
11662 1 -12.0826 11.049 0.888617 1 3.23508e-05 
11703 1 -9.79216 12.0162 0.887941 1 0.000335255 
11708 1 -8.04663 11.0535 2.36741 1 0.00212767 
11972 1 -5.76549 12.0261 2.36652 1 0.0179027 
11974 1 -3.93884 10.6729 1.40489 1 0.437646 
12103 1 -1.84866 11.6028 1.40585 5 10.5958 
12104 1 -0.0124899 11.0276 0.0945206 5 5.72885 
12280 2 0.149059 11.3806 2.60891 2 5.75185 
12313 2 2.34322 10.3823 2.59098 1 0.0910422 
12315 2 1.82821 12.3463 1.12697 1 0.0341793 
12317 2 4.09914 11.3607 1.12478 1 0.00890003 
12471 2 6.00057 12.6529 2.11206 1 0.00112771 
12506 2 6.40449 10.4049 1.13115 1 0.00025999 
12507 2 8.29749 11.6909 2.11532 1 5.77258e-05 
12511 2 10.0524 12.6541 0.637004 1 4.09319e-05 
12758 2 10.5938 10.7275 2.11642 1 1.50922e-05 
12795 2 12.3481 11.6907 0.637508 1 3.20025e-06 
12797 2 14.6431 10.7268 0.637519 1 7.5747e-07 
13138 2 16.5328 12.0119 1.62304 1 2.61915e-07 
13170 2 18.8276 11.0478 1.62278 1 3.78657e-08 
13607 2 20.7174 12.333 2.60837 1 1.44526e-08 
20021 2 20.5824 12.0117 0.143885 1 1.97726e-08 
20927 2 22.8772 11.0476 0.143663 1 2.97616e-09 
3728 4 -67.6953 14.9052 2.37088 5 18.5856 
3734 4 -65.8055 13.6199 1.38508 1 1.1e-15 
4608 4 -63.5107 14.5839 1.38508 1 6.00001e-16 
4610 4 -61.6209 13.2985 0.399281 1 5.00001e-16 
5477 4 -59.3261 14.2625 0.399281 1 1.14963e-07 
5517 1 -57.0314 15.2266 0.399062 1 1.09097e-08 
5519 1 -57.5713 13.2986 1.8778 1 2.68712e-09 
5522 1 -55.2766 14.2626 1.87761 1 1.67356e-09 
6387 1 -53.3868 12.9773 0.891647 1 1.69635e-09 
6428 1 -52.9818 15.2266 1.8774 1 5.76766e-09 
6430 1 -51.092 13.9413 0.891453 1 1.15573e-08 
6435 1 -49.3372 12.9773 2.37005 1 2.37686e-09 
7294 1 -48.7973 14.9053 0.891337 1 9.88666e-10 
7340 1 -47.0424 13.9414 2.36995 1 2.74281e-09 
7343 1 -44.7477 14.9054 2.36984 1 3.49942e-09 
8180 1 -42.8579 13.6201 1.38398 1 8.83744e-10 
8225 1 -40.5632 14.5841 1.3839 1 1.35865e-09 
8994 1 -38.6734 13.2987 0.398036 1 2.60728e-09 
8997 1 -36.3786 14.2627 0.397968 1 1.48875e-09 
9041 1 -34.6238 13.2987 1.87661 1 3.96652e-09 
9713 1 -34.0839 15.2267 0.397887 1 2.42476e-09 
9714 1 -32.329 14.2627 1.8765 1 2.65917e-09 
9720 1 -30.4392 12.9774 0.890595 1 8.51917e-09 
9761 1 -30.0343 15.2267 1.87636 1 5.45511e-09 
10346 1 -28.1445 13.9413 0.89042 1 7.32337e-09 
10347 1 -26.3897 12.9773 2.36895 1 4.38769e-09 
10349 1 -25.8497 14.9052 0.890196 1 3.01845e-09 
10395 1 -24.0949 13.9412 2.36872 1 9.28798e-09 
10887 1 -21.8002 14.9051 2.36847 1 2.91033e-08 
10893 1 -19.9104 13.6198 1.38243 1 9.0903e-08 
11338 1 -17.6159 14.5838 1.38218 1 8.47731e-07 
11340 1 -15.7264 13.2985 0.396016 1 3.18088e-06 
11659 1 -13.4321 14.2629 0.395465 1 2.0022e-05 
11699 1 -11.136 15.2262 0.394165 1 5.97109e-05 
11701 1 -11.6791 13.3 1.8742 1 9.80965e-05 
11704 1 -9.3829 14.2654 1.87287 1 0.00046562 
11927 1 -7.4988 12.9847 0.885375 1 0.00231265 
11968 1 -7.07412 15.2271 1.86665 1 0.00617777 
11970 1 -5.1951 13.9512 0.857231 1 0.0366442 
11975 1 -3.50144 13.0208 2.34149 5 2.51411 
12100 1 -2.8482 14.8855 0.898252 5 5.43975 
12105 1 -0.48325 13.4161 1.14882 5 3.70837 
12283 2 1.45056 14.6025 2.10997 1 0.046911 
12316 2 3.71619 13.6227 2.11811 1 0.00288305 
12320 2 5.47021 14.5858 0.638508 1 0.000607407 
12509 2 7.75791 13.6176 0.636428 1 0.000252359 
12510 2 9.64703 14.9037 1.62372 1 4.56203e-05 
12762 2 11.9424 13.9398 1.62322 1 9.72885e-06 
12768 2 13.8325 15.2251 2.6091 1 2.79537e-06 
12796 2 14.2378 12.976 1.62319 1 1.11139e-06 
19109 2 13.6979 14.9038 0.14462 1 1.7238e-06 
13141 2 16.1277 14.2612 2.60885 1 3.38927e-07 
19111 2 15.9928 13.9398 0.144365 1 1.38907e-07 
13142 2 17.8826 15.225 1.12997 1 7.65097e-08 
13144 2 18.4226 13.2971 2.60861 1 6.8631e-08 
13172 2 20.1774 14.261 1.12971 1 1.37704e-08 
20019 2 18.2877 12.9758 0.14413 1 2.4451e-08 
13608 2 22.4722 13.2969 1.1295 1 7.39575e-09 
3730 4 -67.1553 16.8332 0.89218 5 18.5856 
3758 4 -65.4005 15.8692 2.37088 1 8.00399e-16 
4604 4 -64.8606 17.7972 0.89218 1 6.00001e-16 
4605 4 -63.1057 16.8332 2.37088 1 1.3004e-15 
4611 4 -61.2159 15.5479 1.38508 1 9.00002e-16 
4649 4 -60.811 17.7972 2.37088 1 7.84498e-09 
5515 4 -58.9212 16.5118 1.38508 1 1.73461e-07 
5518 1 -56.6264 17.4759 1.38483 1 2.6637e-09 
6384 1 -54.7366 16.1906 0.398865 1 2.0252e-09 
6426 1 -52.4419 17.1546 0.398656 1 6.1374e-09 
6431 1 -50.6871 16.1906 1.87722 1 1.1576e-08 
7336 1 -48.3923 17.1546 1.87711 1 4.8336e-10 
7338 1 -46.5025 15.8693 0.891231 1 1.19767e-09 
8177 1 -44.2078 16.8334 0.891127 1 2.11871e-09 
8221 1 -41.913 17.7974 0.891039 1 2.07174e-09 
8223 1 -42.453 15.8694 2.36976 1 3.77813e-09 
8226 1 -40.1582 16.8334 2.36968 1 2.82571e-09 
8991 1 -38.2684 15.5481 1.38381 1 3.7765e-09 
9035 1 -37.8634 17.7974 2.3696 1 2.59446e-09 
9037 1 -35.9737 16.5121 1.38375 1 3.55392e-09 
9710 1 -33.6789 17.476 1.38366 1 2.727e-09 
9716 1 -31.7891 16.1907 0.397772 1 3.93656e-09 
10342 1 -29.4943 17.1546 0.397621 1 4.90538e-09 
10343 1 -27.7395 16.1906 1.87618 1 3.47847e-09 
10391 1 -25.4448 17.1545 1.87597 1 5.03766e-09 
10886 1 -23.555 15.8692 0.889972 1 7.58791e-09 
10889 1 -21.2602 16.8331 0.889707 1 5.3574e-08 
10934 1 -19.5055 15.8691 2.36824 1 2.21104e-07 
11334 1 -18.9654 17.797 0.889403 1 1.27421e-07 
11335 1 -17.2107 16.833 2.36792 1 7.61432e-07 
11341 1 -15.3212 15.5477 1.38188 1 4.48653e-06 
11382 1 -14.9156 17.7965 2.36745 1 2.64883e-06 
11697 1 -13.0257 16.5108 1.38141 1 1.83594e-05 
11700 1 -10.7294 17.4716 1.38114 1 0.000316229 
11924 1 -8.83605 16.1861 0.391534 1 0.000962449 
11966 1 -6.53793 17.1454 0.402836 1 0.00881778 
11971 1 -4.72618 16.1744 1.89231 1 0.0889148 
12130 1 -2.45618 17.2434 1.84563 5 4.42183 
12132 1 -0.799103 15.641 2.09922 5 7.56947 
12222 2 0.914214 16.5466 0.637473 5 5.02306 
12287 2 2.74715 17.8019 1.63992 1 0.0666922 
12318 2 3.18314 15.5549 0.632782 1 0.00513799 
12319 2 5.05716 16.836 1.62785 1 0.00167606 
12475 2 7.35316 15.8693 1.62634 1 0.000188528 
17294 2 6.81509 17.7985 0.1484 1 0.000561059 
12481 2 9.24364 17.1537 2.6107 1 2.40283e-05 
18200 2 9.11017 16.8334 0.146706 1 9.2969e-05 
12765 2 11.5376 16.189 2.60956 1 1.05612e-05 
18202 2 11.4036 15.8681 0.145225 1 8.00251e-06 
12766 2 13.2931 17.1533 1.13076 1 1.73917e-06 
12798 2 15.5877 16.1891 1.13029 1 5.48353e-07 
13145 2 17.4776 17.4744 2.11583 1 1.51842e-07 
13148 2 19.7724 16.5103 2.11555 1 4.24143e-08 
13173 2 21.5273 17.4742 0.636685 1 1.4493e-08 
13611 2 22.0672 15.5462 2.11533 1 5.46337e-09 
3727 4 -68.5052 20.0465 0.399281 5 30.976 
3754 4 -66.7504 19.0825 1.87798 5 6.1952 
4601 4 -64.4556 20.0465 1.87798 1 1.2e-15 
4607 4 -62.5658 18.7612 0.89218 1 8.00001e-16 
5511 4 -60.271 19.7252 0.89218 1 3.88619e-08 
5512 1 -58.5162 18.7612 2.37079 1 2.41591e-08 
5559 1 -56.2215 19.7252 2.37059 1 1.67065e-09 
6424 1 -54.3317 18.4399 1.38462 1 3.58955e-09 
6427 1 -52.0369 19.4039 1.38442 1 6.64742e-09 
7291 1 -50.1471 18.1186 0.398492 1 1.1317e-08 
7332 1 -49.7422 20.3679 1.38426 1 1.09323e-08 
7334 1 -47.8524 19.0826 0.398394 1 1.76308e-09 
7339 1 -46.0976 18.1187 1.87701 1 1.05532e-09 
8174 1 -45.5576 20.0466 0.398283 1 3.14604e-09 
8219 1 -43.8028 19.0827 1.87691 1 1.14309e-09 
8222 1 -41.508 20.0467 1.87683 1 1.04106e-09 
8988 1 -39.6183 18.7614 0.89096 1 3.67838e-09 
9033 1 -37.3235 19.7254 0.890886 1 6.08957e-09 
9038 1 -35.5687 18.7614 2.36954 1 6.75968e-09 
9755 1 -33.2739 19.7253 2.36945 1 9.45526e-09 
9757 1 -31.3841 18.44 1.38354 1 2.04752e-09 
10339 1 -29.0894 19.4039 1.38339 1 6.10881e-09 
10345 1 -27.1996 18.1186 0.397428 1 2.33972e-09 
10387 1 -26.7946 20.3679 1.38319 1 3.09362e-09 
10882 1 -24.9048 19.0825 0.397207 1 6.27923e-09 
10883 1 -23.15 18.1185 1.87572 1 1.57021e-08 
10885 1 -22.6101 20.0464 0.396929 1 1.27852e-08 
10930 1 -20.8553 19.0824 1.87542 1 5.39867e-08 
11331 1 -18.5605 20.0462 1.87507 1 3.5738e-07 
11337 1 -16.6704 18.7607 0.888992 1 1.05273e-06 
11693 1 -14.3757 19.7243 0.888633 1 9.73575e-06 
11694 1 -12.6205 18.7594 2.36689 1 5.05797e-05 
11741 1 -10.3288 19.7233 2.36711 1 0.000325503 
11964 1 -8.43931 18.4306 1.38524 1 0.00336747 
11967 1 -6.17717 19.3938 1.38592 1 0.026949 
12097 1 -4.26638 18.117 0.392226 1 0.0554396 
12126 1 -3.93884 20.3128 1.40489 1 0.437645 
12128 1 -1.91791 19.1085 0.37816 5 4.59464 
12221 2 0.230803 18.6903 1.64376 5 6.36092 
12290 2 2.34322 20.0222 2.59098 1 0.0910422 
16404 2 2.17212 19.6766 0.163489 1 0.1216 
12293 2 4.65269 19.0813 2.6118 1 0.00204801 
17292 2 4.51144 18.7584 0.15172 1 0.00549443 
12321 2 6.40449 20.0448 1.13115 1 0.00025999 
12478 2 6.95014 18.119 2.61102 1 0.000170665 
12479 2 8.70367 19.0825 1.13181 1 6.66957e-05 
12485 2 10.5938 20.3674 2.11642 1 1.50922e-05 
12512 2 10.9988 18.1179 1.13147 1 1.49052e-05 
12769 2 12.8886 19.403 2.1165 1 3.24726e-06 
12770 2 14.6431 20.3667 0.637519 1 7.57469e-07 
12772 2 15.183 18.4386 2.11618 1 2.7239e-07 
12799 2 16.9378 19.4025 0.63725 1 7.14746e-08 
13146 2 19.2325 18.4383 0.636944 1 2.42508e-08 
13151 2 21.1223 19.7236 1.62252 1 9.13226e-09 
3750 4 -68.1002 22.2958 1.38508 5 18.5856 
4600 4 -66.2104 21.0105 0.399281 1 5.00001e-16 
4603 4 -63.9157 21.9745 0.399281 1 7.00001e-16 
4645 4 -62.1608 21.0105 1.87798 1 3e-16 
5507 4 -61.6209 22.9385 0.399281 1 3.00001e-16 
5508 4 -59.8661 21.9745 1.87798 1 7.03133e-08 
5514 1 -57.9763 20.6891 0.892037 1 4.18808e-09 
5555 1 -57.5713 22.9385 1.8778 1 2.68715e-09 
6420 1 -55.6815 21.6532 0.891847 1 2.287e-09 
6421 1 -53.9267 20.6892 2.37039 1 1.60563e-09 
6423 1 -53.3868 22.6172 0.891647 1 1.69637e-09 
6469 1 -51.6319 21.6532 2.37019 1 8.0504e-09 
7329 1 -49.3372 22.6173 2.37005 1 2.37686e-09 
7335 1 -47.4474 21.332 1.38417 1 1.78776e-09 
8215 1 -45.1527 22.296 1.38406 1 2.71725e-09 
8217 1 -43.2629 21.0107 0.398186 1 3.8495e-09 
8985 1 -40.9681 21.9747 0.398119 1 1.7068e-09 
9029 1 -38.6734 22.9387 0.398036 1 2.60729e-09 
9031 1 -39.2133 21.0107 1.87675 1 2.24162e-09 
9034 1 -36.9185 21.9747 1.87668 1 3.34099e-09 
9707 1 -35.0287 20.6893 0.890822 1 5.99945e-09 
9751 1 -34.6238 22.9386 1.87661 1 3.96653e-09 
9753 1 -32.734 21.6533 0.890725 1 4.09106e-09 
9758 1 -30.9792 20.6893 2.36932 1 2.54467e-09 
10336 1 -30.4392 22.6173 0.890595 1 8.51914e-09 
10385 1 -28.6844 21.6532 2.36916 1 6.65146e-09 
10388 1 -26.3897 22.6172 2.36895 1 4.38776e-09 
10879 1 -24.4999 21.3318 1.38295 1 5.36933e-09 
10926 1 -22.2051 22.2957 1.38269 1 2.57623e-08 
11330 1 -20.3153 21.0103 0.396641 1 1.24075e-07 
11333 1 -18.0206 21.9743 0.396328 1 4.27598e-07 
11378 1 -16.2659 21.0101 1.87469 1 2.42764e-06 
11689 1 -15.7264 22.9385 0.396016 1 3.18088e-06 
11690 1 -13.9721 21.9745 1.87446 1 1.07112e-05 
11696 1 -12.0826 20.6889 0.888617 1 3.23508e-05 
11737 1 -11.6791 22.9399 1.8742 1 9.80965e-05 
11960 1 -9.79216 21.6561 0.887941 1 0.000335255 
11961 1 -8.04663 20.6934 2.36741 1 0.00212767 
11963 1 -7.4988 22.6246 0.885375 1 0.00231265 
12005 1 -5.76549 21.666 2.36652 1 0.0179026 
12123 1 -3.50144 22.6607 2.34149 5 2.51411 
12129 1 -1.84866 21.2427 1.40585 5 10.5958 
12176 1 -0.48325 23.056 1.14882 5 3.70837 
12177 1 -0.0124898 20.6675 0.0945205 5 5.72885 
12208 2 0.149059 21.0205 2.60891 2 5.75185 
12223 2 1.82821 21.9862 1.12697 1 0.0341794 
12291 2 4.09914 21.0007 1.12478 1 0.00890003 
12297 2 6.00057 22.2928 2.11206 1 0.00112771 
12482 2 8.29749 21.3308 2.11532 1 5.77259e-05 
12483 2 10.0524 22.294 0.637004 1 4.09319e-05 
12513 2 12.3481 21.3307 0.637508 1 3.20025e-06 
12773 2 14.2378 22.6159 1.62319 1 1.11139e-06 
12775 2 16.5328 21.6518 1.62304 1 2.61915e-07 
13104 2 18.4226 22.937 2.60861 1 6.8631e-08 
13149 2 18.8276 20.6877 1.62278 1 3.78657e-08 
19117 2 18.2877 22.6157 0.14413 1 2.4451e-08 
13150 2 20.7174 21.9729 2.60837 1 1.44526e-08 
13154 2 22.4722 22.9368 1.1295 1 7.39574e-09 
20003 2 20.5824 21.6516 0.143885 1 1.97727e-08 
20027 2 22.8772 20.6875 0.143663 1 2.97616e-09 
3751 4 -67.6953 24.5451 2.37088 5 18.5856 
4597 4 -65.8055 23.2598 1.38508 1 1.1e-15 
4639 4 -65.4005 25.5091 2.37088 1 1.0004e-15 
4641 4 -63.5107 24.2238 1.38508 1 2.00001e-16 
5504 4 -61.2159 25.1878 1.38508 1 6.00002e-16 
5510 4 -59.3261 23.9025 0.399281 1 1.14963e-07 
6416 1 -57.0314 24.8665 0.399062 1 1.09096e-08 
6417 1 -55.2766 23.9025 1.87761 1 1.6736e-09 
6465 1 -52.9818 24.8665 1.8774 1 5.76767e-09 
7328 1 -51.092 23.5812 0.891453 1 1.15573e-08 
7331 1 -48.7973 24.5452 0.891337 1 9.88652e-10 
7377 1 -47.0424 23.5813 2.36995 1 2.7428e-09 
8211 1 -46.5025 25.5093 0.891231 1 1.19767e-09 
8212 1 -44.7477 24.5453 2.36984 1 3.4994e-09 
8218 1 -42.8579 23.26 1.38398 1 8.83744e-10 
8259 1 -42.453 25.5093 2.36976 1 3.77813e-09 
9027 1 -40.5632 24.224 1.3839 1 1.35864e-09 
9030 1 -38.2684 25.188 1.38381 1 3.77651e-09 
9704 1 -36.3786 23.9026 0.397968 1 1.48874e-09 
9749 1 -34.0839 24.8666 0.397887 1 2.42477e-09 
9754 1 -32.329 23.9026 1.8765 1 2.65917e-09 
10381 1 -30.0343 24.8666 1.87636 1 5.45509e-09 
10383 1 -28.1445 23.5812 0.89042 1 7.32341e-09 
10876 1 -25.8497 24.5452 0.890196 1 3.01844e-09 
10922 1 -23.555 25.5091 0.889972 1 7.5879e-09 
10924 1 -24.0949 23.5811 2.36872 1 9.28797e-09 
10927 1 -21.8002 24.545 2.36847 1 2.91033e-08 
11327 1 -19.9104 23.2597 1.38243 1 9.09031e-08 
11372 1 -19.5055 25.509 2.36824 1 2.21104e-07 
11374 1 -17.6159 24.2237 1.38218 1 8.47731e-07 
11686 1 -15.3212 25.1876 1.38188 1 4.48653e-06 
11692 1 -13.4321 23.9028 0.395465 1 2.0022e-05 
11956 1 -11.136 24.8661 0.394165 1 5.97108e-05 
11957 1 -9.3829 23.9053 1.87287 1 0.00046562 
12001 1 -7.07412 24.867 1.86665 1 0.00617778 
12122 1 -5.1951 23.5912 0.857231 1 0.0366442 
12125 1 -2.8482 24.5254 0.898252 5 5.43975 
12187 1 -0.799103 25.2809 2.09922 5 7.56947 
12211 2 1.45056 24.2424 2.10997 1 0.046911 
12224 2 3.18314 25.1948 0.632782 1 0.00513798 
12294 2 3.71619 23.2626 2.11811 1 0.00288305 
12295 2 5.47021 24.2257 0.638508 1 0.000607407 
12300 2 7.35316 25.5092 1.62634 1 0.000188528 
12322 2 7.75791 23.2576 0.636428 1 0.000252359 
12486 2 9.64703 24.5436 1.62372 1 4.56203e-05 
12488 2 11.9424 23.5797 1.62322 1 9.72884e-06 
18188 2 11.4036 25.508 0.145225 1 8.0025e-06 
12727 2 13.8325 24.865 2.6091 1 2.79537e-06 
18208 2 13.6979 24.5437 0.14462 1 1.7238e-06 
12774 2 16.1277 23.9011 2.60885 1 3.38927e-07 
19096 2 15.9928 23.5797 0.144365 1 1.38908e-07 
12778 2 17.8826 24.865 1.12997 1 7.65098e-08 
13152 2 20.1774 23.9009 1.12971 1 1.37705e-08 
13153 2 22.0672 25.1861 2.11533 1 5.46338e-09 
4594 4 -67.1553 26.4731 0.89218 5 12.3904 
4637 4 -64.8606 27.4371 0.89218 1 1.00001e-16 
4642 4 -63.1057 26.4731 2.37088 1 9.00401e-16 
5549 4 -60.811 27.4371 2.37088 1 7.84519e-09 
5551 4 -58.9212 26.1518 1.38508 1 1.73461e-07 
6413 1 -56.6264 27.1158 1.38483 1 2.6637e-09 
6419 1 -54.7366 25.8305 0.398865 1 2.02517e-09 
6461 1 -54.3317 28.0798 1.38462 1 3.58946e-09 
7324 1 -52.4419 26.7945 0.398656 1 6.13737e-09 
7325 1 -50.6871 25.8305 1.87722 1 1.1576e-08 
7327 1 -50.1471 27.7585 0.398492 1 1.1317e-08 
7373 1 -48.3923 26.7946 1.87711 1 4.83362e-10 
8208 1 -46.0976 27.7586 1.87701 1 1.05535e-09 
8214 1 -44.2078 26.4733 0.891127 1 2.11869e-09 
9023 1 -41.913 27.4373 0.891039 1 2.07173e-09 
9024 1 -40.1582 26.4733 2.36968 1 2.8257e-09 
9071 1 -37.8634 27.4373 2.3696 1 2.59445e-09 
9747 1 -35.9737 26.152 1.38375 1 3.55389e-09 
9750 1 -33.6789 27.1159 1.38366 1 2.727e-09 
10333 1 -31.7891 25.8306 0.397772 1 3.93655e-09 
10377 1 -31.3841 28.0799 1.38354 1 2.04753e-09 
10379 1 -29.4943 26.7945 0.397621 1 4.90538e-09 
10384 1 -27.7395 25.8305 1.87618 1 3.47847e-09 
10873 1 -27.1996 27.7585 0.397428 1 2.33972e-09 
10920 1 -25.4448 26.7945 1.87597 1 5.03769e-09 
10923 1 -23.15 27.7584 1.87572 1 1.5702e-08 
11324 1 -21.2602 26.4731 0.889707 1 5.35741e-08 
11370 1 -18.9654 27.4369 0.889403 1 1.27421e-07 
11375 1 -17.2107 26.4729 2.36792 1 7.61432e-07 
11731 1 -14.9156 27.4364 2.36745 1 2.64882e-06 
11733 1 -13.0257 26.1507 1.38141 1 1.83594e-05 
11953 1 -10.7294 27.1115 1.38114 1 0.000316229 
11959 1 -8.83605 25.8261 0.391534 1 0.000962449 
11997 1 -8.43931 28.0705 1.38524 1 0.00336747 
12118 1 -6.53793 26.7853 0.402836 1 0.00881776 
12119 1 -4.72618 25.8143 1.89231 1 0.0889148 
12121 1 -4.26638 27.7569 0.392226 1 0.0554397 
12147 1 -2.45618 26.8833 1.84563 5 4.42183 
12209 2 0.914214 26.1865 0.637473 5 5.02306 
12214 2 2.74715 27.4418 1.63992 1 0.0666923 
12298 2 5.05716 26.4759 1.62785 1 0.00167606 
12299 2 6.95014 27.7589 2.61102 1 0.000170665 
17282 2 6.81509 27.4384 0.1484 1 0.000561059 
12441 2 9.24364 26.7936 2.6107 1 2.40283e-05 
17300 2 9.11017 26.4733 0.146706 1 9.2969e-05 
12487 2 11.5376 25.8289 2.60956 1 1.05612e-05 
12489 2 10.9988 27.7578 1.13147 1 1.49052e-05 
12491 2 13.2931 26.7932 1.13076 1 1.73917e-06 
12731 2 15.183 28.0785 2.11618 1 2.7239e-07 
12776 2 15.5877 25.829 1.13029 1 5.48352e-07 
12777 2 17.4776 27.1143 2.11583 1 1.51842e-07 
12781 2 19.2325 28.0782 0.636944 1 2.42508e-08 
13108 2 19.7724 26.1502 2.11555 1 4.24144e-08 
13155 2 21.5273 27.1141 0.636685 1 1.4493e-08 
4592 4 -68.5052 29.6864 0.399281 5 30.976 
4635 4 -66.7504 28.7224 1.87798 5 6.1952 
4633 4 -66.2104 30.6504 0.399281 1 2.00001e-16 
4638 4 -64.4556 29.6864 1.87798 1 7.00001e-16 
5501 4 -62.5658 28.4011 0.89218 1 6.00001e-16 
5545 4 -62.1608 30.6504 1.87798 1 4.35983e-22 
5547 4 -60.271 29.3651 0.89218 1 3.88621e-08 
5552 1 -58.5162 28.4011 2.37079 1 2.4158e-08 
6410 1 -57.9763 30.3291 0.892037 1 4.18783e-09 
6459 1 -56.2215 29.3651 2.37059 1 1.67057e-09 
6462 1 -53.9267 30.3291 2.37039 1 1.60561e-09 
7321 1 -52.0369 29.0438 1.38442 1 6.64742e-09 
7369 1 -49.7422 30.0078 1.38426 1 1.09323e-08 
8207 1 -47.8524 28.7225 0.398394 1 1.76308e-09 
8210 1 -45.5576 29.6866 0.398283 1 3.14603e-09 
8255 1 -43.8028 28.7226 1.87691 1 1.14308e-09 
9019 1 -43.2629 30.6506 0.398186 1 3.84951e-09 
9020 1 -41.508 29.6866 1.87683 1 1.04105e-09 
9026 1 -39.6183 28.4013 0.89096 1 3.67837e-09 
9067 1 -39.2133 30.6506 1.87675 1 2.24161e-09 
9743 1 -37.3235 29.3653 0.890886 1 6.08951e-09 
9744 1 -35.5687 28.4013 2.36954 1 6.75972e-09 
9746 1 -35.0287 30.3292 0.890822 1 5.99945e-09 