ITEM: TIMESTEP
0
ITEM: NUMBER OF ATOMS
19136
ITEM: BOX BOUNDS ss pp pp
-67.2689 134.991
0 32.3572
0 31.875
ITEM: ATOMS id type x y z c_cna c_csd 
3 4 -65.6196 1.24451 0.510739 5 18.5856 
20 4 -65.3448 2.48902 2.64869 5 6.1952 
21 4 -63.4207 1.24451 1.6769 1 9.01262e-16 
25 4 -61.4967 2.48902 0.705098 1 6.99681e-16 
101 4 -59.2977 2.48902 1.87126 1 6.19652e-09 
102 1 -57.3737 1.24451 0.899495 1 8.83837e-09 
127 1 -55.1747 1.24451 2.06575 1 3.12968e-09 
265 1 -53.2507 2.48902 1.09406 1 7.77515e-10 
266 1 -51.3266 1.24451 0.122375 1 1.9498e-09 
268 1 -51.0517 2.48902 2.26035 1 1.11181e-09 
296 1 -49.1277 1.24451 1.28868 1 1.60514e-09 
515 1 -47.2036 2.48902 0.317034 1 7.50195e-10 
512 1 -46.9288 1.24451 2.45502 1 1.89005e-09 
518 1 -45.0047 2.48902 1.48337 1 6.48486e-09 
547 1 -43.0806 1.24451 0.511667 1 1.44766e-09 
846 1 -42.8058 2.48902 2.64966 1 5.39615e-09 
847 1 -40.8817 1.24451 1.67795 1 1.17958e-08 
851 1 -38.9576 2.48902 0.706279 1 3.00704e-09 
1263 1 -36.7588 2.48902 1.87263 1 1.54355e-08 
1264 1 -34.8347 1.24451 0.900991 1 3.06086e-08 
1295 1 -32.6359 1.24451 2.06744 1 1.25626e-07 
1744 1 -30.7119 2.48902 1.09585 1 2.42757e-07 
1745 1 -28.788 1.24451 0.124268 1 3.96371e-07 
1747 1 -28.5131 2.48902 2.2624 1 6.51571e-07 
1775 1 -26.5894 1.24451 1.29095 1 1.46686e-06 
2260 1 -24.3903 1.24451 2.45761 1 3.12071e-06 
2263 1 -24.6658 2.48902 0.319493 1 2.89135e-06 
2266 1 -22.4671 2.48902 1.48639 1 7.47207e-06 
2295 1 -20.5444 1.24451 0.515296 1 1.63281e-05 
2794 1 -20.2671 2.48902 2.65297 1 1.43007e-05 
2795 1 -18.3447 1.24451 1.68234 1 3.86036e-05 
2799 1 -16.4235 2.48902 0.712205 1 9.33274e-05 
3330 1 -14.2198 2.48902 1.87917 1 0.000267007 
3331 1 -12.3019 1.24451 0.911818 1 0.000835318 
3362 1 -10.0826 1.24451 2.07588 1 0.00388517 
3864 1 -8.1721 2.48902 1.11447 1 0.0254332 
3865 1 -6.28538 1.24451 0.155797 1 0.154698 
3867 1 -5.83635 2.48902 2.22044 1 0.188917 
3895 1 -3.79389 1.24451 1.21356 1 0.831572 
4392 1 -1.67146 1.24451 2.45033 2 5.37911 
4395 1 -1.60005 2.48902 0.223364 5 8.15953 
4396 3 0.470042 1.24451 1.04608 1 0.217091 
6670 2 2.49116 2.48902 1.90877 1 0.0831934 
6923 2 4.71204 2.48902 0.724471 1 0.00344939 
6920 2 6.64664 1.24451 1.68149 1 0.000542291 
6922 2 8.57301 2.48902 2.65266 1 0.000121695 
6953 2 8.82888 1.24451 0.508698 1 0.000198755 
7258 2 10.7563 2.48902 1.48227 1 8.35701e-05 
7255 2 12.6814 1.24451 2.45651 1 6.17538e-05 
7259 2 12.9433 2.48902 0.313981 1 0.000104108 
7288 2 14.8713 1.24451 1.28843 1 4.85806e-05 
6632 2 17.0663 1.24451 0.12258 1 9.69842e-05 
7674 2 16.7974 2.48902 2.262 1 2.12142e-05 
7675 2 18.9931 2.48902 1.09566 1 3.32719e-05 
7703 2 20.9188 1.24451 2.0683 1 1.15156e-05 
8153 2 23.1174 1.24451 0.902528 1 6.27214e-06 
8155 2 25.0423 2.48902 1.87458 1 2.64771e-06 
8676 2 27.2414 2.48902 0.708683 1 7.86268e-07 
8673 2 29.1658 1.24451 1.68047 1 3.79421e-07 
8675 2 31.0901 2.48902 2.65221 1 1.61719e-07 
8706 2 31.365 1.24451 0.514326 1 1.15318e-07 
9209 2 33.2892 2.48902 1.486 1 5.43281e-08 
9 4 -65.6196 3.73352 0.510739 5 18.5856 
11 4 -65.3448 4.97803 2.64869 5 6.1952 
22 4 -63.4207 3.73352 1.6769 1 8.9966e-16 
75 4 -61.4967 4.97803 0.705098 1 6.99681e-16 
78 4 -59.2977 4.97803 1.87126 1 6.19652e-09 
103 1 -57.3737 3.73352 0.899495 1 8.83837e-09 
225 1 -55.1747 3.73352 2.06575 1 3.12968e-09 
229 1 -53.2507 4.97803 1.09406 1 7.77515e-10 
267 1 -51.3266 3.73352 0.122375 1 1.9498e-09 
472 1 -51.0517 4.97803 2.26035 1 1.11181e-09 
473 1 -49.1277 3.73352 1.28868 1 1.60514e-09 
476 1 -47.2036 4.97803 0.317034 1 7.50195e-10 
513 1 -46.9288 3.73352 2.45502 1 1.89005e-09 
806 1 -45.0047 4.97803 1.48337 1 6.48486e-09 
807 1 -43.0806 3.73352 0.511667 1 1.44766e-09 
809 1 -42.8058 4.97803 2.64966 1 5.39615e-09 
848 1 -40.8817 3.73352 1.67795 1 1.17958e-08 
1223 1 -38.9576 4.97803 0.706279 1 3.00704e-09 
1226 1 -36.7588 4.97803 1.87263 1 1.54355e-08 
1265 1 -34.8347 3.73352 0.900991 1 3.06086e-08 
1703 1 -32.6359 3.73352 2.06744 1 1.25626e-07 
1707 1 -30.7119 4.97803 1.09585 1 2.42757e-07 
1746 1 -28.788 3.73352 0.124268 1 3.96371e-07 
2220 1 -28.5131 4.97803 2.2624 1 6.51571e-07 
2221 1 -26.5894 3.73352 1.29095 1 1.46686e-06 
2224 1 -24.6658 4.97803 0.319493 1 2.89135e-06 
2261 1 -24.3903 3.73352 2.45761 1 3.12071e-06 
2754 1 -22.4671 4.97803 1.48639 1 7.47207e-06 
2755 1 -20.5444 3.73352 0.515296 1 1.63281e-05 
2757 1 -20.2671 4.97803 2.65297 1 1.43007e-05 
2796 1 -18.3447 3.73352 1.68234 1 3.86036e-05 
3290 1 -16.4235 4.97803 0.712205 1 9.33274e-05 
3293 1 -14.2198 4.97803 1.87917 1 0.000267007 
3332 1 -12.3019 3.73352 0.911818 1 0.000835318 
3823 1 -10.0826 3.73352 2.07588 1 0.00388517 
3827 1 -8.1721 4.97803 1.11447 1 0.0254332 
3866 1 -6.28538 3.73352 0.155797 1 0.154698 
4352 1 -5.83635 4.97803 2.22044 1 0.188917 
4353 1 -3.79389 3.73352 1.21356 1 0.831572 
4356 1 -1.60005 4.97803 0.223364 5 8.15953 
4393 1 -1.67146 3.73352 2.45033 2 5.37911 
4397 3 0.470042 3.73352 1.04608 1 0.217091 
6881 2 2.49116 4.97803 1.90877 1 0.0831934 
6882 2 4.71204 4.97803 0.724471 1 0.00344939 
6921 2 6.64664 3.73352 1.68149 1 0.000542291 
7215 2 8.57301 4.97803 2.65266 1 0.000121695 
7216 2 8.82888 3.73352 0.508698 1 0.000198755 
7218 2 10.7563 4.97803 1.48227 1 8.35701e-05 
7256 2 12.6814 3.73352 2.45651 1 6.17538e-05 
7635 2 12.9433 4.97803 0.313981 1 0.000104108 
7632 2 14.8713 3.73352 1.28843 1 4.85806e-05 
6633 2 17.0663 3.73352 0.12258 1 9.69842e-05 
7634 2 16.7974 4.97803 2.262 1 2.12142e-05 
8110 2 20.9188 3.73352 2.0683 1 1.15156e-05 
8113 2 18.9931 4.97803 1.09566 1 3.32719e-05 
8154 2 23.1174 3.73352 0.902528 1 6.27214e-06 
8634 2 25.0423 4.97803 1.87458 1 2.64771e-06 
8635 2 27.2414 4.97803 0.708683 1 7.86268e-07 
8674 2 29.1658 3.73352 1.68047 1 3.79421e-07 
9166 2 31.0901 4.97803 2.65221 1 1.61719e-07 
9167 2 31.365 3.73352 0.514326 1 1.15318e-07 
9169 2 33.2892 4.97803 1.486 1 5.43281e-08 
10 4 -65.6196 6.22254 0.510739 5 18.5856 
54 4 -65.3448 7.46705 2.64869 5 6.1952 
55 4 -63.4207 6.22254 1.6769 1 8.9966e-16 
59 4 -61.4967 7.46705 0.705098 1 6.99681e-16 
192 4 -59.2977 7.46705 1.87126 1 6.19652e-09 
193 1 -57.3737 6.22254 0.899495 1 8.83837e-09 
226 1 -55.1747 6.22254 2.06575 1 3.12968e-09 
433 1 -53.2507 7.46705 1.09406 1 7.77515e-10 
434 1 -51.3266 6.22254 0.122375 1 1.9498e-09 
436 1 -51.0517 7.46705 2.26035 1 1.11181e-09 
474 1 -49.1277 6.22254 1.28868 1 1.60514e-09 
766 1 -47.2036 7.46705 0.317034 1 7.50195e-10 
763 1 -46.9288 6.22254 2.45502 1 1.89005e-09 
769 1 -45.0047 7.46705 1.48337 1 6.48486e-09 
808 1 -43.0806 6.22254 0.511667 1 1.44766e-09 
1179 1 -42.8058 7.46705 2.64966 1 5.39615e-09 
1180 1 -40.8817 6.22254 1.67795 1 1.17958e-08 
1184 1 -38.9576 7.46705 0.706279 1 3.00704e-09 
1662 1 -36.7588 7.46705 1.87263 1 1.54355e-08 
1663 1 -34.8347 6.22254 0.900991 1 3.06086e-08 
1704 1 -32.6359 6.22254 2.06744 1 1.25626e-07 
2181 1 -30.7119 7.46705 1.09585 1 2.42757e-07 
2182 1 -28.788 6.22254 0.124268 1 3.96371e-07 
2184 1 -28.5131 7.46705 2.2624 1 6.51571e-07 
2222 1 -26.5894 6.22254 1.29095 1 1.46686e-06 
2711 1 -24.3903 6.22254 2.45761 1 3.12071e-06 
2714 1 -24.6658 7.46705 0.319493 1 2.89135e-06 
2717 1 -22.4671 7.46705 1.48639 1 7.47207e-06 
2756 1 -20.5444 6.22254 0.515296 1 1.63281e-05 
3246 1 -20.2671 7.46705 2.65297 1 1.43007e-05 
3247 1 -18.3447 6.22254 1.68234 1 3.86036e-05 
3251 1 -16.4235 7.46705 0.712205 1 9.33274e-05 
3782 1 -14.2198 7.46705 1.87917 1 0.000267007 
3783 1 -12.3019 6.22254 0.911818 1 0.000835318 
3824 1 -10.0826 6.22254 2.07588 1 0.00388517 
4313 1 -8.1721 7.46705 1.11447 1 0.0254332 
4314 1 -6.28538 6.22254 0.155797 1 0.154698 
4316 1 -5.83635 7.46705 2.22044 1 0.188917 
4354 1 -3.79389 6.22254 1.21356 1 0.831572 
4838 1 -1.67146 6.22254 2.45033 2 5.37911 
4841 1 -1.60005 7.46705 0.223364 5 8.15953 
4842 3 0.470042 6.22254 1.04608 1 0.217091 
6841 2 2.49116 7.46705 1.90877 1 0.0831934 
7176 2 4.71204 7.46705 0.724471 1 0.00344939 
7173 2 6.64664 6.22254 1.68149 1 0.000542291 
7175 2 8.57301 7.46705 2.65266 1 0.000121695 
7217 2 8.82888 6.22254 0.508698 1 0.000198755 
7593 2 10.7563 7.46705 1.48227 1 8.35701e-05 
7590 2 12.6814 6.22254 2.45651 1 6.17538e-05 
7594 2 12.9433 7.46705 0.313981 1 0.000104108 
7633 2 14.8713 6.22254 1.28843 1 4.85806e-05 
6803 2 17.0663 6.22254 0.12258 1 9.69842e-05 
8072 2 16.7974 7.46705 2.262 1 2.12142e-05 
8073 2 18.9931 7.46705 1.09566 1 3.32719e-05 
8111 2 20.9188 6.22254 2.0683 1 1.15156e-05 
8592 2 23.1174 6.22254 0.902528 1 6.27214e-06 
8594 2 25.0423 7.46705 1.87458 1 2.64771e-06 
9127 2 27.2414 7.46705 0.708683 1 7.86268e-07 
9124 2 29.1658 6.22254 1.68047 1 3.79421e-07 
9126 2 31.0901 7.46705 2.65221 1 1.61719e-07 
9168 2 31.365 6.22254 0.514326 1 1.15318e-07 
9661 2 33.2892 7.46705 1.486 1 5.43281e-08 
43 4 -65.6196 8.71156 0.510739 5 18.5856 
45 4 -65.3448 9.95606 2.64869 5 6.1952 
56 4 -63.4207 8.71156 1.6769 1 8.9966e-16 
166 4 -61.4967 9.95606 0.705098 1 6.98083e-16 
169 4 -59.2977 9.95606 1.87126 1 6.19652e-09 
194 1 -57.3737 8.71156 0.899495 1 8.83837e-09 
393 1 -55.1747 8.71156 2.06575 1 3.12968e-09 
397 1 -53.2507 9.95606 1.09406 1 7.77515e-10 
435 1 -51.3266 8.71156 0.122375 1 1.9498e-09 
723 1 -51.0517 9.95606 2.26035 1 1.11181e-09 
724 1 -49.1277 8.71156 1.28868 1 1.60514e-09 
727 1 -47.2036 9.95606 0.317034 1 7.50195e-10 
764 1 -46.9288 8.71156 2.45502 1 1.89005e-09 
1139 1 -45.0047 9.95606 1.48337 1 6.48486e-09 
1140 1 -43.0806 8.71156 0.511667 1 1.44766e-09 
1142 1 -42.8058 9.95606 2.64966 1 5.39615e-09 
1181 1 -40.8817 8.71156 1.67795 1 1.17958e-08 
1622 1 -38.9576 9.95606 0.706279 1 3.00704e-09 
1625 1 -36.7588 9.95606 1.87263 1 1.54355e-08 
1664 1 -34.8347 8.71156 0.900991 1 3.06086e-08 
2140 1 -32.6359 8.71156 2.06744 1 1.25626e-07 
2144 1 -30.7119 9.95606 1.09585 1 2.42757e-07 
2183 1 -28.788 8.71156 0.124268 1 3.96371e-07 
2671 1 -28.5131 9.95606 2.2624 1 6.51571e-07 
2672 1 -26.5894 8.71156 1.29095 1 1.46686e-06 
2675 1 -24.6658 9.95606 0.319493 1 2.89135e-06 
2712 1 -24.3903 8.71156 2.45761 1 3.12071e-06 
3206 1 -22.4671 9.95606 1.48639 1 7.47207e-06 
3207 1 -20.5444 8.71156 0.515296 1 1.63281e-05 
3209 1 -20.2671 9.95606 2.65297 1 1.43007e-05 
3248 1 -18.3447 8.71156 1.68234 1 3.86036e-05 
3742 1 -16.4235 9.95606 0.712205 1 9.33274e-05 
3745 1 -14.2198 9.95606 1.87917 1 0.000267007 
3784 1 -12.3019 8.71156 0.911818 1 0.000835318 
4272 1 -10.0826 8.71156 2.07588 1 0.00388517 
4276 1 -8.1721 9.95606 1.11447 1 0.0254332 
4315 1 -6.28538 8.71156 0.155797 1 0.154698 
4798 1 -5.83635 9.95606 2.22044 1 0.188917 
4799 1 -3.79389 8.71156 1.21356 1 0.831572 
4802 1 -1.60005 9.95606 0.223364 5 8.15953 
4839 1 -1.67146 8.71156 2.45033 2 5.37911 
4843 3 0.470042 8.71156 1.04608 1 0.217091 
7134 2 2.49116 9.95606 1.90877 1 0.0831934 
7135 2 4.71204 9.95606 0.724471 1 0.00344939 
7174 2 6.64664 8.71156 1.68149 1 0.000542291 
7550 2 8.57301 9.95606 2.65266 1 0.000121695 
7551 2 8.82888 8.71156 0.508698 1 0.000198755 
7553 2 10.7563 9.95606 1.48227 1 8.35701e-05 
7591 2 12.6814 8.71156 2.45651 1 6.17538e-05 
8033 2 12.9433 9.95606 0.313981 1 0.000104108 
8030 2 14.8713 8.71156 1.28843 1 4.85806e-05 
6804 2 17.0663 8.71156 0.12258 1 9.69842e-05 
8032 2 16.7974 9.95606 2.262 1 2.12142e-05 
8549 2 20.9188 8.71156 2.0683 1 1.15156e-05 
8552 2 18.9931 9.95606 1.09566 1 3.32719e-05 
8593 2 23.1174 8.71156 0.902528 1 6.27214e-06 
9085 2 25.0423 9.95606 1.87458 1 2.64771e-06 
9086 2 27.2414 9.95606 0.708683 1 7.86268e-07 
9125 2 29.1658 8.71156 1.68047 1 3.79421e-07 
9618 2 31.0901 9.95606 2.65221 1 1.61719e-07 
9619 2 31.365 8.71156 0.514326 1 1.15318e-07 
9621 2 33.2892 9.95606 1.486 1 5.43281e-08 
44 4 -65.6196 11.2006 0.510739 5 18.5856 
145 4 -65.3448 12.4451 2.64869 5 6.1952 
146 4 -63.4207 11.2006 1.6769 1 8.98062e-16 
150 4 -61.4967 12.4451 0.705098 1 6.99681e-16 
360 4 -59.2977 12.4451 1.87126 1 6.19652e-09 
361 1 -57.3737 11.2006 0.899495 1 8.83837e-09 
394 1 -55.1747 11.2006 2.06575 1 3.12968e-09 
684 1 -53.2507 12.4451 1.09406 1 7.77515e-10 
685 1 -51.3266 11.2006 0.122375 1 1.9498e-09 
687 1 -51.0517 12.4451 2.26035 1 1.11181e-09 
725 1 -49.1277 11.2006 1.28868 1 1.60514e-09 
1099 1 -47.2036 12.4451 0.317034 1 7.50195e-10 
1096 1 -46.9288 11.2006 2.45502 1 1.89005e-09 
1102 1 -45.0047 12.4451 1.48337 1 6.48486e-09 
1141 1 -43.0806 11.2006 0.511667 1 1.44766e-09 
1578 1 -42.8058 12.4451 2.64966 1 5.39615e-09 
1579 1 -40.8817 11.2006 1.67795 1 1.17958e-08 
1583 1 -38.9576 12.4451 0.706279 1 3.00704e-09 
2099 1 -36.7588 12.4451 1.87263 1 1.54355e-08 
2100 1 -34.8347 11.2006 0.900991 1 3.06086e-08 
2141 1 -32.6359 11.2006 2.06744 1 1.25626e-07 
2632 1 -30.7119 12.4451 1.09585 1 2.42757e-07 
2633 1 -28.788 11.2006 0.124268 1 3.96371e-07 
2635 1 -28.5131 12.4451 2.2624 1 6.51571e-07 
2673 1 -26.5894 11.2006 1.29095 1 1.46686e-06 
3163 1 -24.3903 11.2006 2.45761 1 3.12071e-06 
3166 1 -24.6658 12.4451 0.319493 1 2.89135e-06 
3169 1 -22.4671 12.4451 1.48639 1 7.47207e-06 
3208 1 -20.5444 11.2006 0.515296 1 1.63281e-05 
3698 1 -20.2671 12.4451 2.65297 1 1.43007e-05 
3699 1 -18.3447 11.2006 1.68234 1 3.86036e-05 
3703 1 -16.4235 12.4451 0.712205 1 9.33274e-05 
4231 1 -14.2198 12.4451 1.87917 1 0.000267007 
4232 1 -12.3019 11.2006 0.911818 1 0.000835318 
4273 1 -10.0826 11.2006 2.07588 1 0.00388517 
4759 1 -8.1721 12.4451 1.11447 1 0.0254332 
4760 1 -6.28538 11.2006 0.155797 1 0.154698 
4762 1 -5.83635 12.4451 2.22044 1 0.188917 
4800 1 -3.79389 11.2006 1.21356 1 0.831572 
5256 1 -1.67146 11.2006 2.45033 2 5.37911 
5259 1 -1.60005 12.4451 0.223364 5 8.15953 
5260 3 0.470042 11.2006 1.04608 1 0.217091 
7094 2 2.49116 12.4451 1.90877 1 0.0831934 
7511 2 4.71204 12.4451 0.724471 1 0.00344939 
7508 2 6.64664 11.2006 1.68149 1 0.000542291 
7510 2 8.57301 12.4451 2.65266 1 0.000121695 
7552 2 8.82888 11.2006 0.508698 1 0.000198755 
7991 2 10.7563 12.4451 1.48227 1 8.35701e-05 
7988 2 12.6814 11.2006 2.45651 1 6.17538e-05 
7992 2 12.9433 12.4451 0.313981 1 0.000104108 
8031 2 14.8713 11.2006 1.28843 1 4.85806e-05 
7056 2 17.0663 11.2006 0.12258 1 9.69842e-05 
8511 2 16.7974 12.4451 2.262 1 2.12142e-05 
8512 2 18.9931 12.4451 1.09566 1 3.32719e-05 
8550 2 20.9188 11.2006 2.0683 1 1.15156e-05 
9043 2 23.1174 11.2006 0.902528 1 6.27214e-06 
9045 2 25.0423 12.4451 1.87458 1 2.64771e-06 
9579 2 27.2414 12.4451 0.708683 1 7.86268e-07 
9576 2 29.1658 11.2006 1.68047 1 3.79421e-07 
9578 2 31.0901 12.4451 2.65221 1 1.61719e-07 
9620 2 31.365 11.2006 0.514326 1 1.15318e-07 
10110 2 33.2892 12.4451 1.486 1 5.43281e-08 
134 4 -65.6196 13.6896 0.510739 5 18.5856 
135 4 -65.6196 16.1786 0.510739 5 18.5856 
136 4 -65.3448 14.9341 2.64869 5 6.1952 
147 4 -63.4207 13.6896 1.6769 1 8.9966e-16 
314 4 -63.4207 16.1786 1.6769 1 8.9966e-16 
334 4 -61.4967 14.9341 0.705098 1 6.99681e-16 
337 4 -59.2977 14.9341 1.87126 1 6.19652e-09 
362 1 -57.3737 13.6896 0.899495 1 8.83837e-09 
612 1 -57.3737 16.1786 0.899495 1 8.83837e-09 
644 1 -55.1747 13.6896 2.06575 1 3.12968e-09 
645 1 -55.1747 16.1786 2.06575 1 3.12968e-09 
648 1 -53.2507 14.9341 1.09406 1 7.77515e-10 
686 1 -51.3266 13.6896 0.122375 1 1.9498e-09 
1018 1 -51.3266 16.1786 0.122375 1 1.9498e-09 
1056 1 -51.0517 14.9341 2.26035 1 1.11181e-09 
1057 1 -49.1277 13.6896 1.28868 1 1.60514e-09 
1058 1 -49.1277 16.1786 1.28868 1 1.60514e-09 
1060 1 -47.2036 14.9341 0.317034 1 7.50195e-10 
1097 1 -46.9288 13.6896 2.45502 1 1.89005e-09 
1495 1 -46.9288 16.1786 2.45502 1 1.89005e-09 
1538 1 -45.0047 14.9341 1.48337 1 6.48486e-09 
1539 1 -43.0806 13.6896 0.511667 1 1.44766e-09 
1540 1 -43.0806 16.1786 0.511667 1 1.44766e-09 
1541 1 -42.8058 14.9341 2.64966 1 5.39615e-09 
1580 1 -40.8817 13.6896 1.67795 1 1.17958e-08 
2016 1 -40.8817 16.1786 1.67795 1 1.17958e-08 
2059 1 -38.9576 14.9341 0.706279 1 3.00704e-09 
2062 1 -36.7588 14.9341 1.87263 1 1.54355e-08 
2101 1 -34.8347 13.6896 0.900991 1 3.06086e-08 
2551 1 -34.8347 16.1786 0.900991 1 3.06086e-08 
2591 1 -32.6359 13.6896 2.06744 1 1.25626e-07 
2592 1 -32.6359 16.1786 2.06744 1 1.25626e-07 
2595 1 -30.7119 14.9341 1.09585 1 2.42757e-07 
2634 1 -28.788 13.6896 0.124268 1 3.96371e-07 
3085 1 -28.788 16.1786 0.124268 1 3.96371e-07 
3123 1 -28.5131 14.9341 2.2624 1 6.51571e-07 
3124 1 -26.5894 13.6896 1.29095 1 1.46686e-06 
3125 1 -26.5894 16.1786 1.29095 1 1.46686e-06 
3127 1 -24.6658 14.9341 0.319493 1 2.89135e-06 
3164 1 -24.3903 13.6896 2.45761 1 3.12071e-06 
3615 1 -24.3903 16.1786 2.45761 1 3.12071e-06 
3658 1 -22.4671 14.9341 1.48639 1 7.47207e-06 
3659 1 -20.5444 13.6896 0.515296 1 1.63281e-05 
3660 1 -20.5444 16.1786 0.515296 1 1.63281e-05 
3661 1 -20.2671 14.9341 2.65297 1 1.43007e-05 
3700 1 -18.3447 13.6896 1.68234 1 3.86036e-05 
4148 1 -18.3447 16.1786 1.68234 1 3.86036e-05 
4191 1 -16.4235 14.9341 0.712205 1 9.33274e-05 
4194 1 -14.2198 14.9341 1.87917 1 0.000267007 
4233 1 -12.3019 13.6896 0.911818 1 0.000835318 
4678 1 -12.3019 16.1786 0.911818 1 0.000835318 
4718 1 -10.0826 13.6896 2.07588 1 0.00388517 
4719 1 -10.0826 16.1786 2.07588 1 0.00388517 
4722 1 -8.1721 14.9341 1.11447 1 0.0254332 
4761 1 -6.28538 13.6896 0.155797 1 0.154698 
5178 1 -6.28538 16.1786 0.155797 1 0.154698 
5216 1 -5.83635 14.9341 2.22044 1 0.188917 
5217 1 -3.79389 13.6896 1.21356 1 0.831572 
5218 1 -3.79389 16.1786 1.21356 1 0.831572 
5220 1 -1.60005 14.9341 0.223364 5 8.15953 
5257 1 -1.67146 13.6896 2.45033 2 5.37911 
5617 1 -1.67146 16.1786 2.45033 2 5.37911 
5261 3 0.470042 13.6896 1.04608 1 0.217091 
5621 3 0.470042 16.1786 1.04608 1 0.217091 
7469 2 2.49116 14.9341 1.90877 1 0.0831934 
7470 2 4.71204 14.9341 0.724471 1 0.00344939 
7509 2 6.64664 13.6896 1.68149 1 0.000542291 
7906 2 6.64664 16.1786 1.68149 1 0.000542291 
7948 2 8.57301 14.9341 2.65266 1 0.000121695 
7949 2 8.82888 13.6896 0.508698 1 0.000198755 
7950 2 8.82888 16.1786 0.508698 1 0.000198755 
7951 2 10.7563 14.9341 1.48227 1 8.35701e-05 
7989 2 12.6814 13.6896 2.45651 1 6.17538e-05 
8427 2 12.6814 16.1786 2.45651 1 6.17538e-05 
8472 2 12.9433 14.9341 0.313981 1 0.000104108 
8469 2 14.8713 13.6896 1.28843 1 4.85806e-05 
8470 2 14.8713 16.1786 1.28843 1 4.85806e-05 
7057 2 17.0663 13.6896 0.12258 1 9.69842e-05 
7391 2 17.0663 16.1786 0.12258 1 9.69842e-05 
8471 2 16.7974 14.9341 2.262 1 2.12142e-05 
9000 2 20.9188 13.6896 2.0683 1 1.15156e-05 
9001 2 20.9188 16.1786 2.0683 1 1.15156e-05 
9003 2 18.9931 14.9341 1.09566 1 3.32719e-05 
9044 2 23.1174 13.6896 0.902528 1 6.27214e-06 
9495 2 23.1174 16.1786 0.902528 1 6.27214e-06 
9537 2 25.0423 14.9341 1.87458 1 2.64771e-06 
9538 2 27.2414 14.9341 0.708683 1 7.86268e-07 
9577 2 29.1658 13.6896 1.68047 1 3.79421e-07 
10025 2 29.1658 16.1786 1.68047 1 3.79421e-07 
10067 2 31.0901 14.9341 2.65221 1 1.61719e-07 
10068 2 31.365 13.6896 0.514326 1 1.15318e-07 
10069 2 31.365 16.1786 0.514326 1 1.15318e-07 
10070 2 33.2892 14.9341 1.486 1 5.43281e-08 
302 4 -65.6196 18.6676 0.510739 5 18.5856 
313 4 -65.3448 17.4231 2.64869 5 6.1952 
315 4 -63.4207 18.6676 1.6769 1 8.9966e-16 
318 4 -61.4967 17.4231 0.705098 1 6.99681e-16 
611 4 -59.2977 17.4231 1.87126 1 6.19652e-09 
613 1 -57.3737 18.6676 0.899495 1 8.83837e-09 
977 1 -55.1747 18.6676 2.06575 1 3.12968e-09 
1017 1 -53.2507 17.4231 1.09406 1 7.77515e-10 
1019 1 -51.3266 18.6676 0.122375 1 1.9498e-09 
1020 1 -51.0517 17.4231 2.26035 1 1.11181e-09 
1456 1 -49.1277 18.6676 1.28868 1 1.60514e-09 
1498 1 -47.2036 17.4231 0.317034 1 7.50195e-10 
1496 1 -46.9288 18.6676 2.45502 1 1.89005e-09 
1501 1 -45.0047 17.4231 1.48337 1 6.48486e-09 
1976 1 -43.0806 18.6676 0.511667 1 1.44766e-09 
2015 1 -42.8058 17.4231 2.64966 1 5.39615e-09 
2017 1 -40.8817 18.6676 1.67795 1 1.17958e-08 
2020 1 -38.9576 17.4231 0.706279 1 3.00704e-09 
2550 1 -36.7588 17.4231 1.87263 1 1.54355e-08 
2552 1 -34.8347 18.6676 0.900991 1 3.06086e-08 
3043 1 -32.6359 18.6676 2.06744 1 1.25626e-07 
3084 1 -30.7119 17.4231 1.09585 1 2.42757e-07 
3086 1 -28.788 18.6676 0.124268 1 3.96371e-07 
3087 1 -28.5131 17.4231 2.2624 1 6.51571e-07 
3576 1 -26.5894 18.6676 1.29095 1 1.46686e-06 
3616 1 -24.3903 18.6676 2.45761 1 3.12071e-06 
3618 1 -24.6658 17.4231 0.319493 1 2.89135e-06 
3621 1 -22.4671 17.4231 1.48639 1 7.47207e-06 
4108 1 -20.5444 18.6676 0.515296 1 1.63281e-05 
4147 1 -20.2671 17.4231 2.65297 1 1.43007e-05 
4149 1 -18.3447 18.6676 1.68234 1 3.86036e-05 
4152 1 -16.4235 17.4231 0.712205 1 9.33274e-05 
4677 1 -14.2198 17.4231 1.87917 1 0.000267007 
4679 1 -12.3019 18.6676 0.911818 1 0.000835318 
5136 1 -10.0826 18.6676 2.07588 1 0.00388517 
5177 1 -8.1721 17.4231 1.11447 1 0.0254332 
5179 1 -6.28538 18.6676 0.155797 1 0.154698 
5180 1 -5.83635 17.4231 2.22044 1 0.188917 
5578 1 -3.79389 18.6676 1.21356 1 0.831572 
5618 1 -1.67146 18.6676 2.45033 2 5.37911 
5620 1 -1.60005 17.4231 0.223364 5 8.15953 
5622 3 0.470042 18.6676 1.04608 1 0.217091 
7429 2 2.49116 17.4231 1.90877 1 0.0831934 
7909 2 4.71204 17.4231 0.724471 1 0.00344939 
7907 2 6.64664 18.6676 1.68149 1 0.000542291 
7908 2 8.57301 17.4231 2.65266 1 0.000121695 
8388 2 8.82888 18.6676 0.508698 1 0.000198755 
8430 2 10.7563 17.4231 1.48227 1 8.35701e-05 
8428 2 12.6814 18.6676 2.45651 1 6.17538e-05 
8431 2 12.9433 17.4231 0.313981 1 0.000104108 
8920 2 14.8713 18.6676 1.28843 1 4.85806e-05 
7392 2 17.0663 18.6676 0.12258 1 9.69842e-05 
8962 2 16.7974 17.4231 2.262 1 2.12142e-05 
8963 2 18.9931 17.4231 1.09566 1 3.32719e-05 
9452 2 20.9188 18.6676 2.0683 1 1.15156e-05 
9496 2 23.1174 18.6676 0.902528 1 6.27214e-06 
9497 2 25.0423 17.4231 1.87458 1 2.64771e-06 
10028 2 27.2414 17.4231 0.708683 1 7.86268e-07 
10026 2 29.1658 18.6676 1.68047 1 3.79421e-07 
10027 2 31.0901 17.4231 2.65221 1 1.61719e-07 
10519 2 31.365 18.6676 0.514326 1 1.15318e-07 
10561 2 33.2892 17.4231 1.486 1 5.43281e-08 
303 4 -65.6196 21.1566 0.510739 5 18.5856 
304 4 -65.3448 19.9121 2.64869 5 6.1952 
565 4 -63.4207 21.1566 1.6769 1 8.9966e-16 
585 4 -61.4967 19.9121 0.705098 1 6.99681e-16 
588 4 -59.2977 19.9121 1.87126 1 6.19652e-09 
945 1 -57.3737 21.1566 0.899495 1 8.83837e-09 
978 1 -55.1747 21.1566 2.06575 1 3.12968e-09 
981 1 -53.2507 19.9121 1.09406 1 7.77515e-10 
1417 1 -51.3266 21.1566 0.122375 1 1.9498e-09 
1455 1 -51.0517 19.9121 2.26035 1 1.11181e-09 
1457 1 -49.1277 21.1566 1.28868 1 1.60514e-09 
1459 1 -47.2036 19.9121 0.317034 1 7.50195e-10 
1932 1 -46.9288 21.1566 2.45502 1 1.89005e-09 
1975 1 -45.0047 19.9121 1.48337 1 6.48486e-09 
1977 1 -43.0806 21.1566 0.511667 1 1.44766e-09 
1978 1 -42.8058 19.9121 2.64966 1 5.39615e-09 
2467 1 -40.8817 21.1566 1.67795 1 1.17958e-08 
2510 1 -38.9576 19.9121 0.706279 1 3.00704e-09 
2513 1 -36.7588 19.9121 1.87263 1 1.54355e-08 
3003 1 -34.8347 21.1566 0.900991 1 3.06086e-08 
3044 1 -32.6359 21.1566 2.06744 1 1.25626e-07 
3047 1 -30.7119 19.9121 1.09585 1 2.42757e-07 
3537 1 -28.788 21.1566 0.124268 1 3.96371e-07 
3575 1 -28.5131 19.9121 2.2624 1 6.51571e-07 
3577 1 -26.5894 21.1566 1.29095 1 1.46686e-06 
3579 1 -24.6658 19.9121 0.319493 1 2.89135e-06 
4064 1 -24.3903 21.1566 2.45761 1 3.12071e-06 
4107 1 -22.4671 19.9121 1.48639 1 7.47207e-06 
4109 1 -20.5444 21.1566 0.515296 1 1.63281e-05 
4110 1 -20.2671 19.9121 2.65297 1 1.43007e-05 
4594 1 -18.3447 21.1566 1.68234 1 3.86036e-05 
4637 1 -16.4235 19.9121 0.712205 1 9.33274e-05 
4640 1 -14.2198 19.9121 1.87917 1 0.000267007 
5096 1 -12.3019 21.1566 0.911818 1 0.000835318 
5137 1 -10.0826 21.1566 2.07588 1 0.00388517 
5140 1 -8.1721 19.9121 1.11447 1 0.0254332 
5539 1 -6.28538 21.1566 0.155797 1 0.154698 
5577 1 -5.83635 19.9121 2.22044 1 0.188917 
5579 1 -3.79389 21.1566 1.21356 1 0.831572 
5581 1 -1.60005 19.9121 0.223364 5 8.15953 
5898 1 -1.67146 21.1566 2.45033 2 5.37911 
5902 3 0.470042 21.1566 1.04608 1 0.217091 
7867 2 2.49116 19.9121 1.90877 1 0.0831934 
7868 2 4.71204 19.9121 0.724471 1 0.00344939 
8345 2 6.64664 21.1566 1.68149 1 0.000542291 
8387 2 8.57301 19.9121 2.65266 1 0.000121695 
8389 2 8.82888 21.1566 0.508698 1 0.000198755 
8390 2 10.7563 19.9121 1.48227 1 8.35701e-05 
8878 2 12.6814 21.1566 2.45651 1 6.17538e-05 
8923 2 12.9433 19.9121 0.313981 1 0.000104108 
8921 2 14.8713 21.1566 1.28843 1 4.85806e-05 
7789 2 17.0663 21.1566 0.12258 1 9.69842e-05 
8922 2 16.7974 19.9121 2.262 1 2.12142e-05 
9453 2 20.9188 21.1566 2.0683 1 1.15156e-05 
9455 2 18.9931 19.9121 1.09566 1 3.32719e-05 
9944 2 23.1174 21.1566 0.902528 1 6.27214e-06 
9986 2 25.0423 19.9121 1.87458 1 2.64771e-06 
9987 2 27.2414 19.9121 0.708683 1 7.86268e-07 
10476 2 29.1658 21.1566 1.68047 1 3.79421e-07 
10518 2 31.0901 19.9121 2.65221 1 1.61719e-07 
10520 2 31.365 21.1566 0.514326 1 1.15318e-07 
10521 2 33.2892 19.9121 1.486 1 5.43281e-08 
553 4 -65.6196 23.6457 0.510739 5 18.5856 
564 4 -65.3448 22.4011 2.64869 5 6.1952 
566 4 -63.4207 23.6457 1.6769 1 8.99659e-16 
569 4 -61.4967 22.4011 0.705098 1 6.99681e-16 
944 4 -59.2977 22.4011 1.87126 1 6.19652e-09 
946 1 -57.3737 23.6457 0.899495 1 8.83837e-09 
1376 1 -55.1747 23.6457 2.06575 1 3.12968e-09 
1416 1 -53.2507 22.4011 1.09406 1 7.77515e-10 
1418 1 -51.3266 23.6457 0.122375 1 1.9498e-09 
1419 1 -51.0517 22.4011 2.26035 1 1.11181e-09 
1893 1 -49.1277 23.6457 1.28868 1 1.60514e-09 
1935 1 -47.2036 22.4011 0.317034 1 7.50195e-10 
1933 1 -46.9288 23.6457 2.45502 1 1.89005e-09 
1938 1 -45.0047 22.4011 1.48337 1 6.48486e-09 
2427 1 -43.0806 23.6457 0.511667 1 1.44766e-09 
2466 1 -42.8058 22.4011 2.64966 1 5.39615e-09 
2468 1 -40.8817 23.6457 1.67795 1 1.17958e-08 
2471 1 -38.9576 22.4011 0.706279 1 3.00704e-09 
3002 1 -36.7588 22.4011 1.87263 1 1.54355e-08 
3004 1 -34.8347 23.6457 0.900991 1 3.06086e-08 
3495 1 -32.6359 23.6457 2.06744 1 1.25626e-07 
3536 1 -30.7119 22.4011 1.09585 1 2.42757e-07 
3538 1 -28.788 23.6457 0.124268 1 3.96371e-07 
3539 1 -28.5131 22.4011 2.2624 1 6.51571e-07 
4025 1 -26.5894 23.6457 1.29095 1 1.46686e-06 
4065 1 -24.3903 23.6457 2.45761 1 3.12071e-06 
4067 1 -24.6658 22.4011 0.319493 1 2.89135e-06 
4070 1 -22.4671 22.4011 1.48639 1 7.47207e-06 
4554 1 -20.5444 23.6457 0.515296 1 1.63281e-05 
4593 1 -20.2671 22.4011 2.65297 1 1.43007e-05 
4595 1 -18.3447 23.6457 1.68234 1 3.86036e-05 
4598 1 -16.4235 22.4011 0.712205 1 9.33274e-05 
5095 1 -14.2198 22.4011 1.87917 1 0.000267007 
5097 1 -12.3019 23.6457 0.911818 1 0.000835318 
5497 1 -10.0826 23.6457 2.07588 1 0.00388517 
5538 1 -8.1721 22.4011 1.11447 1 0.0254332 
5540 1 -6.28538 23.6457 0.155797 1 0.154698 
5541 1 -5.83635 22.4011 2.22044 1 0.188917 
5859 1 -3.79389 23.6457 1.21356 1 0.831572 
5899 1 -1.67146 23.6457 2.45033 2 5.37911 
5901 1 -1.60005 22.4011 0.223364 5 8.15953 
5903 3 0.470042 23.6457 1.04608 1 0.217091 
7827 2 2.49116 22.4011 1.90877 1 0.0831934 
8348 2 4.71204 22.4011 0.724471 1 0.00344939 
8346 2 6.64664 23.6457 1.68149 1 0.000542291 
8347 2 8.57301 22.4011 2.65266 1 0.000121695 
8839 2 8.82888 23.6457 0.508698 1 0.000198755 
8881 2 10.7563 22.4011 1.48227 1 8.35701e-05 
8879 2 12.6814 23.6457 2.45651 1 6.17538e-05 
8882 2 12.9433 22.4011 0.313981 1 0.000104108 
9372 2 14.8713 23.6457 1.28843 1 4.85806e-05 
7790 2 17.0663 23.6457 0.12258 1 9.69842e-05 
9414 2 16.7974 22.4011 2.262 1 2.12142e-05 
9415 2 18.9931 22.4011 1.09566 1 3.32719e-05 
9901 2 20.9188 23.6457 2.0683 1 1.15156e-05 
9945 2 23.1174 23.6457 0.902528 1 6.27214e-06 
9946 2 25.0423 22.4011 1.87458 1 2.64771e-06 
10479 2 27.2414 22.4011 0.708683 1 7.86268e-07 
10477 2 29.1658 23.6457 1.68047 1 3.79421e-07 
10478 2 31.0901 22.4011 2.65221 1 1.61719e-07 
10971 2 31.365 23.6457 0.514326 1 1.15318e-07 
11013 2 33.2892 22.4011 1.486 1 5.43281e-08 
554 4 -65.6196 26.1347 0.510739 5 18.5856 
555 4 -65.3448 24.8902 2.64869 5 6.1952 
898 4 -63.4207 26.1347 1.6769 1 8.9966e-16 
918 4 -61.4967 24.8902 0.705098 1 6.9968e-16 
921 4 -59.2977 24.8902 1.87126 1 6.19652e-09 
1344 1 -57.3737 26.1347 0.899495 1 8.83837e-09 
1377 1 -55.1747 26.1347 2.06575 1 3.12968e-09 
1380 1 -53.2507 24.8902 1.09406 1 7.77515e-10 
1854 1 -51.3266 26.1347 0.122375 1 1.9498e-09 
1892 1 -51.0517 24.8902 2.26035 1 1.11181e-09 
1894 1 -49.1277 26.1347 1.28868 1 1.60514e-09 
1896 1 -47.2036 24.8902 0.317034 1 7.50195e-10 
2383 1 -46.9288 26.1347 2.45502 1 1.89005e-09 
2426 1 -45.0047 24.8902 1.48337 1 6.48486e-09 
2428 1 -43.0806 26.1347 0.511667 1 1.44766e-09 
2429 1 -42.8058 24.8902 2.64966 1 5.39615e-09 
2919 1 -40.8817 26.1347 1.67795 1 1.17958e-08 
2962 1 -38.9576 24.8902 0.706279 1 3.00704e-09 
2965 1 -36.7588 24.8902 1.87263 1 1.54355e-08 
3455 1 -34.8347 26.1347 0.900991 1 3.06086e-08 
3496 1 -32.6359 26.1347 2.06744 1 1.25626e-07 
3499 1 -30.7119 24.8902 1.09585 1 2.42757e-07 
3986 1 -28.788 26.1347 0.124268 1 3.96371e-07 
4024 1 -28.5131 24.8902 2.2624 1 6.51571e-07 
4026 1 -26.5894 26.1347 1.29095 1 1.46686e-06 
4028 1 -24.6658 24.8902 0.319493 1 2.89135e-06 
4510 1 -24.3903 26.1347 2.45761 1 3.12071e-06 
4553 1 -22.4671 24.8902 1.48639 1 7.47207e-06 
4555 1 -20.5444 26.1347 0.515296 1 1.63281e-05 
4556 1 -20.2671 24.8902 2.65297 1 1.43007e-05 
5012 1 -18.3447 26.1347 1.68234 1 3.86036e-05 
5055 1 -16.4235 24.8902 0.712205 1 9.33274e-05 
5058 1 -14.2198 24.8902 1.87917 1 0.000267007 
5457 1 -12.3019 26.1347 0.911818 1 0.000835318 
5498 1 -10.0826 26.1347 2.07588 1 0.00388517 
5501 1 -8.1721 24.8902 1.11447 1 0.0254332 
5820 1 -6.28538 26.1347 0.155797 1 0.154698 
5858 1 -5.83635 24.8902 2.22044 1 0.188917 
5860 1 -3.79389 26.1347 1.21356 1 0.831572 
5862 1 -1.60005 24.8902 0.223364 5 8.15953 
6098 1 -1.67146 26.1347 2.45033 2 5.37911 
6102 3 0.470042 26.1347 1.04608 1 0.217091 
8306 2 2.49116 24.8902 1.90877 1 0.0831934 
8307 2 4.71204 24.8902 0.724471 1 0.00344939 
8796 2 6.64664 26.1347 1.68149 1 0.000542291 
8838 2 8.57301 24.8902 2.65266 1 0.000121695 
8840 2 8.82888 26.1347 0.508698 1 0.000198755 
8841 2 10.7563 24.8902 1.48227 1 8.35701e-05 
9330 2 12.6814 26.1347 2.45651 1 6.17538e-05 
9375 2 12.9433 24.8902 0.313981 1 0.000104108 
9373 2 14.8713 26.1347 1.28843 1 4.85806e-05 
8228 2 17.0663 26.1347 0.12258 1 9.69842e-05 
9374 2 16.7974 24.8902 2.262 1 2.12142e-05 
9902 2 20.9188 26.1347 2.0683 1 1.15156e-05 
9904 2 18.9931 24.8902 1.09566 1 3.32719e-05 
10395 2 23.1174 26.1347 0.902528 1 6.27214e-06 
10437 2 25.0423 24.8902 1.87458 1 2.64771e-06 
10438 2 27.2414 24.8902 0.708683 1 7.86268e-07 