ITEM: TIMESTEP
0
ITEM: NUMBER OF ATOMS
23574
ITEM: BOX BOUNDS ss pp pp
-66.7362 113.859
0 38.7999
0 36.5809
ITEM: ATOMS id type x y z c_cna c_csd 
1 4 -66.3213 1.9895 0.216537 5 24.7808 
2 4 -66.3213 0.552469 2.24881 5 30.976 
41 4 -64.2471 0.791974 0.893962 1 1.89922e-15 
188 4 -60.9284 1.75 1.57139 1 6.0034e-16 
191 4 -58.8542 1.9895 0.216537 1 1.72792e-10 
222 4 -58.8542 0.552469 2.24881 1 1.08867e-10 
551 1 -56.7801 0.79197 0.893964 1 3.26896e-09 
992 1 -53.4614 1.75003 1.57139 1 1.7989e-08 
993 1 -51.3872 1.98957 0.216488 1 9.05867e-09 
994 1 -51.3872 0.55253 2.24878 1 1.70623e-08 
1468 1 -49.3131 0.792047 0.893855 1 5.98765e-09 
1942 1 -45.9944 1.75004 1.57119 1 1.26188e-09 
1945 1 -43.9203 1.98952 0.216289 1 4.27524e-09 
1981 1 -43.9203 0.552512 2.24857 1 6.59002e-09 
2460 1 -41.8461 0.791968 0.893685 1 6.35297e-09 
2936 1 -38.5275 1.74992 1.57106 1 1.71449e-09 
2937 1 -36.4534 1.98938 0.216163 1 1.71149e-09 
2938 1 -36.4534 0.552339 2.24845 1 3.75084e-09 
3412 1 -34.3792 0.79178 0.89356 1 4.55237e-09 
3886 1 -31.0606 1.74965 1.57095 1 1.69836e-08 
3889 1 -28.9865 1.98907 0.216093 1 1.37178e-08 
3925 1 -28.9865 0.55201 2.24837 1 2.22451e-08 
4404 1 -26.9124 0.791433 0.893549 1 4.50414e-08 
4880 1 -23.5937 1.74936 1.57096 1 1.44558e-07 
4881 1 -21.5196 1.98884 0.216225 1 4.73324e-07 
4882 1 -21.5194 0.55179 2.24831 1 1.80072e-07 
5356 1 -19.4452 0.791316 0.893542 1 7.268e-07 
5830 1 -16.1249 1.74907 1.57047 1 5.17404e-06 
5833 1 -14.049 1.98793 0.215488 1 3.16939e-05 
5869 1 -14.0501 0.551507 2.24736 1 1.13818e-05 
6348 1 -11.9731 0.790025 0.892003 1 8.01273e-05 
6824 1 -8.65621 1.7454 1.569 1 0.00053626 
6825 1 -6.58052 1.97956 0.210851 1 0.00314157 
6826 1 -6.58226 0.544379 2.23629 1 0.00514974 
7300 1 -4.48529 0.788063 0.891246 1 0.0572039 
7774 1 -1.37136 1.84682 1.61487 5 5.60651 
8729 2 0.846901 1.68908 1.29266 5 6.52401 
8870 2 3.19602 1.69624 1.23295 1 0.333686 
8912 2 5.6118 1.71579 1.22939 1 0.0355416 
9140 2 8.08071 1.72459 1.23159 1 0.00331197 
9182 2 10.5658 1.72714 1.23229 1 0.000308538 
9497 2 13.0546 1.7271 1.23183 1 3.90532e-05 
9539 2 15.5438 1.72638 1.23114 1 7.5014e-06 
9940 2 18.0328 1.72577 1.2306 1 1.7369e-06 
9982 2 20.5217 1.72539 1.23026 1 4.16057e-07 
10470 2 23.0105 1.72517 1.23008 1 1.25018e-07 
24 4 -65.0768 4.14505 0.216537 5 12.3904 
40 4 -65.0768 2.70802 2.24881 5 12.3904 
26 4 -63.8323 4.86357 2.24881 1 7e-16 
42 4 -63.0026 2.94753 0.893962 1 1.3993e-15 
155 4 -61.7581 5.10308 0.893962 1 1.59922e-15 
189 4 -59.6839 3.90555 1.57139 1 7.99939e-16 
508 4 -57.6097 2.70802 2.24881 1 1.93183e-09 
511 4 -57.6097 4.14505 0.216537 1 2.54285e-09 
509 1 -56.3652 4.8636 2.2488 1 4.65666e-09 
512 1 -55.5356 2.94753 0.893978 1 1.27859e-08 
950 1 -54.2911 5.10311 0.893932 1 3.2634e-09 
951 1 -52.2169 3.9056 1.57134 1 3.90716e-09 
1425 1 -50.1427 4.14513 0.216446 1 7.31243e-09 
1427 1 -48.8982 4.86364 2.24869 1 3.8981e-09 
1467 1 -50.1427 2.7081 2.24874 1 1.04669e-08 
1469 1 -48.0686 2.94758 0.893817 1 2.40769e-09 
1900 1 -46.8241 5.10311 0.893784 1 7.66781e-09 
1943 1 -44.7499 3.90557 1.57116 1 5.39554e-09 
2417 1 -42.6758 2.70803 2.24855 1 4.43279e-09 
2418 1 -41.4313 4.86356 2.24853 1 1.64964e-09 
2420 1 -42.6758 4.14506 0.216275 1 1.42525e-09 
2421 1 -40.6016 2.94749 0.893669 1 2.79682e-09 
2894 1 -39.3572 5.10303 0.893637 1 2.80873e-09 
2895 1 -37.283 3.90545 1.57103 1 2.60074e-09 
3369 1 -35.2089 4.14489 0.216132 1 3.27583e-09 
3371 1 -33.9644 4.86335 2.24839 1 3.42287e-09 
3411 1 -35.2089 2.70785 2.24842 1 4.4941e-09 
3413 1 -33.1347 2.94728 0.893529 1 4.83663e-09 
3844 1 -31.8902 5.10276 0.893505 1 4.23419e-09 
3887 1 -29.8161 3.90514 1.57093 1 9.91027e-09 
4361 1 -27.742 2.70752 2.24836 1 2.60276e-08 
4362 1 -26.4975 4.86303 2.24834 1 3.69965e-08 
4364 1 -27.742 4.14458 0.21608 1 2.06475e-08 
4365 1 -25.6679 2.94696 0.893535 1 6.81915e-08 
4838 1 -24.4233 5.10245 0.89353 1 8.26648e-08 
4839 1 -22.349 3.90484 1.57094 1 1.46914e-07 
5313 1 -20.2747 4.14421 0.216249 1 5.01014e-07 
5315 1 -19.0296 4.86262 2.24826 1 8.48427e-07 
5355 1 -20.2745 2.70728 2.24823 1 3.30379e-07 
5357 1 -18.2 2.94663 0.893495 1 1.278e-06 
5788 1 -16.9549 5.10178 0.893558 1 4.35125e-06 
5831 1 -14.8796 3.90397 1.5707 1 1.74684e-05 
6305 1 -12.8044 2.70565 2.24818 1 5.85122e-05 
6308 1 -12.805 4.14277 0.215519 1 4.08665e-05 
6306 1 -11.5641 4.86277 2.24789 1 3.29044e-05 
6309 1 -10.7308 2.94376 0.892569 1 0.00011345 
6782 1 -9.49324 5.10185 0.891406 1 0.000196266 
6783 1 -7.42476 3.90498 1.56729 1 0.00172898 
7257 1 -5.35131 4.14641 0.221738 1 0.0161242 
7299 1 -5.36124 2.70719 2.23491 1 0.0204853 
7259 1 -4.05494 4.86738 2.28528 1 0.160838 
7301 1 -3.30057 2.98664 0.910644 1 0.479769 
7732 1 -2.04845 5.02851 0.827239 1 0.898809 
8828 2 0.0125655 3.94774 1.56437 5 3.97248 
8871 2 3.03367 4.09065 0.566511 5 1.50504 
8872 2 4.39199 3.393 2.60244 1 0.108289 
9098 2 5.56915 4.10882 0.560007 1 0.0271571 
9139 2 6.84498 3.39923 2.59264 1 0.0106708 
9141 2 8.07248 4.11972 0.560238 1 0.00284147 
9142 2 9.32461 3.40167 2.58892 1 0.00106612 
9455 2 10.5658 4.12267 0.558106 1 0.000313565 
9496 2 11.8118 3.40258 2.58711 1 0.000134199 
9498 2 13.0558 4.12257 0.555859 1 4.30939e-05 
9499 2 14.3005 3.40257 2.58611 1 2.61912e-05 
9898 2 15.5447 4.12172 0.554282 1 8.15639e-06 
9939 2 16.7892 3.40228 2.58555 1 6.82087e-06 
9941 2 18.0334 4.12098 0.553369 1 2.11367e-06 
9942 2 19.2778 3.402 2.58523 1 1.98071e-06 
10428 2 20.522 4.12051 0.55289 1 6.74689e-07 
10469 2 21.7665 3.40181 2.58504 1 5.75102e-07 
10471 2 23.0107 4.12025 0.552664 1 2.68732e-07 
23 4 -65.9065 6.0611 1.57139 5 18.5856 
25 4 -63.8323 6.3006 0.216537 1 4.9976e-16 
154 4 -62.5878 7.01912 2.24881 1 4e-16 
156 4 -60.5136 7.25863 0.893962 1 1.79922e-15 
465 4 -58.4394 6.0611 1.57139 1 1.90181e-09 
468 1 -56.3652 6.30063 0.216517 1 6.96631e-09 
905 1 -55.1207 7.01916 2.24878 1 3.04876e-09 
909 1 -53.0465 7.25868 0.893903 1 3.98912e-09 
1424 1 -50.9724 6.06116 1.5713 1 3.34491e-09 
1426 1 -48.8982 6.30066 0.216401 1 6.32656e-09 
1899 1 -47.6537 7.01918 2.24864 1 6.28997e-09 
1901 1 -45.5796 7.25868 0.893745 1 2.6458e-09 
2374 1 -43.5055 6.06112 1.57114 1 1.07359e-09 
2377 1 -41.4313 6.3006 0.216253 1 3.41285e-09 
2849 1 -40.1869 7.0191 2.2485 1 7.78021e-09 
2853 1 -38.1127 7.25856 0.893621 1 8.41348e-09 
3368 1 -36.0385 6.06097 1.571 1 6.12234e-09 
3370 1 -33.9644 6.30037 0.216111 1 2.66585e-09 
3843 1 -32.7199 7.01883 2.24837 1 3.11282e-09 
3845 1 -30.6458 7.25826 0.893499 1 4.15686e-09 
4318 1 -28.5716 6.06064 1.57092 1 2.00283e-08 
4321 1 -26.4975 6.30007 0.216092 1 3.07666e-08 
4793 1 -25.2529 7.01849 2.24836 1 3.78213e-08 
4797 1 -23.1787 7.25787 0.893586 1 1.32322e-07 
5312 1 -21.1043 6.06023 1.57099 1 2.82467e-07 
5314 1 -19.0299 6.2995 0.216311 1 1.37006e-06 
5787 1 -17.7851 7.01814 2.24824 1 1.20827e-06 
5789 1 -15.7112 7.25773 0.893372 1 3.08328e-06 
6262 1 -13.6368 6.06038 1.5704 1 1.25256e-05 
6265 1 -11.5639 6.30016 0.21453 1 5.34954e-05 
6737 1 -10.3224 7.02006 2.24692 1 0.000100805 
6741 1 -8.25083 7.25954 0.893359 1 0.000879838 
7256 1 -6.1729 6.06203 1.58373 1 0.0105721 
7258 1 -4.15214 6.29117 0.233135 1 0.108246 
7731 1 -2.90937 7.05099 2.20057 1 0.35324 
7733 1 -0.598015 7.46775 0.839156 5 6.79683 
8830 2 1.64142 5.80067 1.75547 5 4.92145 
9097 2 4.28785 5.77857 1.89465 1 0.0910134 
9100 2 6.81216 5.79146 1.91054 1 0.00770389 
9454 2 9.31505 5.79701 1.91281 1 0.000919217 
9457 2 11.8092 5.7984 1.91141 1 0.000126399 
9897 2 14.2998 5.79821 1.90979 1 2.2566e-05 
9900 2 16.789 5.79769 1.90867 1 5.12172e-06 
10427 2 19.2778 5.79725 1.90803 1 1.40437e-06 
10430 2 21.7665 5.79695 1.90769 1 4.06945e-07 
12 4 -66.7361 9.41418 0.893962 5 30.976 
13 4 -64.6619 8.21665 1.57139 1 3.99941e-16 
126 4 -62.5878 8.45616 0.216537 1 7.9956e-16 
128 4 -61.3433 9.17467 2.24881 1 8.994e-16 
423 4 -59.2691 9.41418 0.893962 1 1.79942e-15 
466 4 -57.1949 8.21665 1.57139 1 7.14098e-09 
906 1 -53.8762 9.17471 2.24876 1 3.08593e-09 
908 1 -55.1207 8.45619 0.216507 1 4.06325e-09 
1382 1 -51.802 9.41424 0.893886 1 2.98013e-09 
1383 1 -49.7279 8.21671 1.57127 1 4.62155e-09 
1857 1 -47.6537 8.45623 0.21636 1 4.1785e-09 
1859 1 -46.4092 9.17474 2.24861 1 5.90343e-09 
2332 1 -44.3351 9.41423 0.893733 1 3.50016e-09 
2375 1 -42.261 8.21667 1.57112 1 3.70441e-09 
2850 1 -38.9423 9.17462 2.2485 1 2.10259e-09 
2852 1 -40.1868 8.45614 0.216238 1 7.15923e-09 
3326 1 -36.8682 9.41406 0.893602 1 4.03751e-09 
3327 1 -34.794 8.21645 1.57098 1 2.90382e-09 
3801 1 -32.7199 8.45588 0.216099 1 1.26486e-09 
3803 1 -31.4754 9.17433 2.24837 1 5.99482e-09 
4276 1 -29.4013 9.41374 0.893514 1 7.44907e-09 
4319 1 -27.3271 8.21612 1.57094 1 2.0526e-08 
4794 1 -24.0084 9.17396 2.24839 1 7.17012e-08 
4796 1 -25.253 8.45552 0.216138 1 5.14933e-08 
5270 1 -21.9343 9.41335 0.893639 1 2.49509e-07 
5271 1 -19.8598 8.21572 1.57101 1 4.13475e-07 
5745 1 -17.7859 8.45521 0.21628 1 1.49948e-06 
5747 1 -16.541 9.17413 2.24796 1 2.34911e-06 
6220 1 -14.467 9.41416 0.892627 1 1.02314e-05 
6263 1 -12.3934 8.2174 1.56938 1 2.6028e-05 
6740 1 -10.3201 8.45837 0.212685 1 0.000119854 
6738 1 -9.07664 9.17566 2.24451 1 0.000352188 
7214 1 -7.00605 9.42052 0.889871 1 0.00294733 
7215 1 -4.92117 8.24247 1.55798 1 0.0267697 
7689 1 -2.78098 8.50194 0.199676 5 1.75868 
7691 1 -1.6421 9.12378 2.27846 5 5.38975 
9010 2 0.574709 9.84391 2.19087 5 6.09245 
9054 2 1.82876 8.13234 1.10447 5 4.70805 
9052 2 3.03278 9.85041 2.54283 1 0.159893 
9056 2 4.3222 8.19123 1.21338 1 0.0156867 
9366 2 5.54968 9.87024 2.57474 1 0.00325429 
9409 2 8.05722 9.87141 2.58401 1 0.000365523 
9411 2 6.82035 8.19608 1.23506 1 0.00150456 
9413 2 9.31645 8.19635 1.23743 1 0.000404312 
9809 2 10.5568 9.87109 2.58664 1 0.000121631 
9852 2 13.051 9.87032 2.58679 1 4.26812e-05 
9854 2 11.8089 8.19533 1.2354 1 0.000109809 
9856 2 14.2991 8.19409 1.23317 1 2.71263e-05 
10339 2 15.5423 9.86955 2.58625 1 1.30495e-05 
10382 2 18.0321 9.86901 2.58569 1 3.43186e-06 
10384 2 16.7883 8.1931 1.23163 1 6.01223e-06 
10386 2 19.2772 8.19244 1.23076 1 1.20009e-06 
10946 2 20.5213 9.86867 2.58528 1 8.14544e-07 
10989 2 23.0103 9.86845 2.58507 1 2.16605e-07 
10991 2 21.7661 8.19206 1.23032 1 2.5201e-07 
6 4 -65.4916 11.5697 0.893962 5 6.1952 
103 4 -62.1729 12.5278 1.57139 1 6.9994e-16 
125 4 -63.4174 10.3722 1.57139 1 7.00341e-16 
127 4 -61.3433 10.6117 0.216537 1 7.9936e-16 
383 4 -60.0987 12.7673 0.216537 1 4.99761e-16 
422 4 -60.0987 11.3302 2.24881 1 5.99801e-16 
424 4 -58.0246 11.5697 0.893962 1 1.29099e-09 
862 1 -55.9504 10.3722 1.57136 1 3.43417e-09 
863 1 -54.7059 12.5278 1.57138 1 6.60635e-09 
865 1 -53.8762 10.6118 0.216497 1 5.39308e-09 
1337 1 -52.6317 11.3303 2.24876 1 7.92119e-09 
1340 1 -52.6317 12.7673 0.216504 1 8.92876e-09 
1341 1 -50.5575 11.5698 0.893872 1 5.33086e-09 
1815 1 -47.2389 12.5278 1.57122 1 4.69516e-09 
1856 1 -48.4834 10.3723 1.57124 1 1.3892e-09 
1858 1 -46.4093 10.6118 0.216337 1 6.5665e-09 
2289 1 -45.1648 12.7673 0.216312 1 3.91615e-09 
2331 1 -45.1648 11.3303 2.24859 1 1.21462e-08 
2333 1 -43.0906 11.5698 0.893709 1 3.26046e-09 
2806 1 -41.0165 10.3722 1.57112 1 5.23211e-09 
2807 1 -39.772 12.5277 1.57109 1 2.40316e-09 
2809 1 -38.9423 10.6116 0.216224 1 4.34032e-09 
3281 1 -37.6978 11.3301 2.24848 1 3.24418e-09 
3284 1 -37.6978 12.7672 0.216189 1 1.30906e-09 
3285 1 -35.6237 11.5696 0.893582 1 5.0553e-09 
3800 1 -33.5496 10.372 1.57097 1 1.41662e-09 
3759 1 -32.3051 12.5275 1.57096 1 2.39187e-09 
3802 1 -31.4754 10.6114 0.216095 1 2.54468e-09 
4233 1 -30.231 12.7669 0.216094 1 7.15231e-09 
4275 1 -30.2309 11.3298 2.24837 1 1.19182e-08 
4277 1 -28.1568 11.5692 0.893535 1 2.16012e-08 
4750 1 -26.0826 10.3716 1.57098 1 4.7242e-08 
4751 1 -24.8382 12.5271 1.57099 1 9.66049e-08 
4753 1 -24.0086 10.611 0.216189 1 1.15676e-07 
5225 1 -22.7639 11.3295 2.24839 1 1.40448e-07 
5228 1 -22.7642 12.7666 0.216226 1 3.47133e-07 
5229 1 -20.69 11.569 0.893633 1 5.99068e-07 
5744 1 -18.6155 10.3715 1.57088 1 7.2246e-07 
5703 1 -17.3706 12.5272 1.5706 1 1.54216e-06 
5746 1 -16.5417 10.6112 0.215981 1 3.5165e-06 
6177 1 -15.2961 12.7668 0.2155 1 7.61625e-06 
6219 1 -15.296 11.3298 2.24753 1 4.75758e-06 
6221 1 -13.2212 11.5698 0.891671 1 2.89713e-05 
6694 1 -11.1479 10.3734 1.56818 1 6.08609e-05 
6695 1 -9.89738 12.5264 1.56922 1 0.000254374 
6697 1 -9.0732 10.6157 0.210947 1 0.00032106 
7169 1 -7.82183 11.3279 2.24564 1 0.0013989 
7172 1 -7.82078 12.7649 0.206238 1 0.00141216 
7173 1 -5.75112 11.5676 0.879664 1 0.0115994 
7647 1 -2.30661 12.5009 1.51983 5 1.80244 
7688 1 -3.62844 10.3774 1.52813 1 0.181386 
7690 1 -1.20393 10.5877 0.26229 5 6.35732 
9011 2 0.405035 12.1982 1.95414 5 4.09341 
9013 2 1.85111 10.6529 0.452447 5 0.765253 
9323 2 3.01598 12.2586 1.91907 1 0.122776 
9369 2 4.3175 10.5972 0.542004 1 0.0223713 
9367 2 5.54164 12.269 1.91042 1 0.018242 
9370 2 6.81388 10.5951 0.556924 1 0.00235937 
9766 2 8.05377 12.2678 1.90942 1 0.00268734 
9810 2 10.5552 12.2667 1.90964 1 0.00043915 
9812 2 9.31189 10.5931 0.559148 1 0.00053073 
9813 2 11.806 10.5911 0.557563 1 0.000126887 
10296 2 13.0502 12.2656 1.90927 1 8.35896e-05 
10340 2 15.5419 12.2647 1.90866 1 1.77576e-05 
10342 2 14.2973 10.5894 0.555562 1 2.90781e-05 
10343 2 16.7872 10.5882 0.554106 1 6.3981e-06 
10903 2 18.0319 12.264 1.90813 1 3.99848e-06 
10947 2 20.5212 12.2637 1.90777 1 9.44467e-07 
10949 2 19.2765 10.5875 0.553259 1 1.4706e-06 
10950 2 21.7656 10.5871 0.55283 1 4.1763e-07 
11547 2 23.0103 12.2635 1.90757 1 2.62014e-07 
3 4 -66.3213 14.9228 0.216537 5 30.976 
4 4 -66.3213 13.4858 2.24881 5 30.976 
102 4 -64.2471 13.7253 0.893962 1 2.09922e-15 
382 4 -60.9284 14.6833 1.57139 1 2.9994e-16 
384 4 -58.8542 14.9228 0.216537 1 1.72746e-10 
385 4 -58.8542 13.4858 2.24881 1 1.08832e-10 
820 1 -56.7801 13.7253 0.893964 1 3.26863e-09 
1294 1 -53.4614 14.6833 1.57139 1 1.79891e-08 
1297 1 -51.3872 14.9229 0.216488 1 9.05871e-09 
1338 1 -51.3872 13.4858 2.24878 1 1.70623e-08 
1814 1 -49.3131 13.7254 0.893855 1 5.98761e-09 
2288 1 -45.9944 14.6834 1.57119 1 1.26186e-09 
2290 1 -43.9203 14.9228 0.216289 1 4.27525e-09 
2291 1 -43.9203 13.4858 2.24857 1 6.59002e-09 
2764 1 -41.8461 13.7253 0.893685 1 6.35297e-09 
3238 1 -38.5275 14.6832 1.57106 1 1.71449e-09 
3241 1 -36.4534 14.9227 0.216163 1 1.71147e-09 
3282 1 -36.4534 13.4856 2.24845 1 3.75082e-09 
3758 1 -34.3792 13.7251 0.89356 1 4.55239e-09 
4232 1 -31.0606 14.683 1.57095 1 1.69836e-08 
4234 1 -28.9865 14.9224 0.216093 1 1.37178e-08 
4235 1 -28.9865 13.4853 2.24837 1 2.22451e-08 
4708 1 -26.9124 13.7247 0.893549 1 4.50414e-08 
5182 1 -23.5937 14.6827 1.57096 1 1.44558e-07 
5185 1 -21.5196 14.9221 0.216225 1 4.73324e-07 
5226 1 -21.5194 13.4851 2.24831 1 1.80072e-07 
5702 1 -19.4452 13.7246 0.893542 1 7.268e-07 
6176 1 -16.1249 14.6824 1.57047 1 5.17404e-06 
6178 1 -14.049 14.9212 0.215488 1 3.16939e-05 
6179 1 -14.0501 13.4848 2.24736 1 1.13818e-05 
6652 1 -11.9731 13.7233 0.892003 1 8.01273e-05 
7126 1 -8.65621 14.6787 1.569 1 0.00053626 
7129 1 -6.58052 14.9129 0.210851 1 0.00314157 
7170 1 -6.58226 13.4777 2.23629 1 0.00514974 
7646 1 -4.48529 13.7214 0.891246 1 0.0572039 
8110 1 -1.37136 14.7801 1.61487 5 5.60651 
9281 2 0.846901 14.6224 1.29266 5 6.52401 
9324 2 3.19602 14.6296 1.23295 1 0.333686 
9724 2 5.6118 14.6491 1.22939 1 0.0355416 
9767 2 8.08071 14.6579 1.23159 1 0.00331197 
10254 2 10.5658 14.6604 1.23229 1 0.000308538 
10297 2 13.0546 14.6604 1.23183 1 3.90532e-05 
10861 2 15.5438 14.6597 1.23114 1 7.5014e-06 
10904 2 18.0328 14.6591 1.2306 1 1.7369e-06 
11505 2 20.5217 14.6587 1.23026 1 4.16057e-07 
11548 2 23.0105 14.6585 1.23008 1 1.25019e-07 
80 4 -65.0768 15.6413 2.24881 5 12.3904 
83 4 -65.0768 17.0784 0.216537 5 12.3904 
81 4 -63.8323 17.7969 2.24881 1 4e-16 
84 4 -63.0026 15.8808 0.893962 1 1.09922e-15 
347 4 -61.7581 18.0364 0.893962 1 1.89922e-15 
348 4 -59.6839 16.8389 1.57139 1 1.09994e-15 
777 4 -57.6097 17.0784 0.216537 1 2.54392e-09 
819 4 -57.6097 15.6413 2.24881 1 1.93e-09 
779 1 -56.3652 17.7969 2.2488 1 4.65706e-09 
821 1 -55.5356 15.8808 0.893978 1 1.27857e-08 
1252 1 -54.2911 18.0364 0.893932 1 3.26331e-09 
1295 1 -52.2169 16.8389 1.57134 1 3.9071e-09 
1769 1 -50.1427 15.6414 2.24874 1 1.04669e-08 
1770 1 -48.8982 17.7969 2.24869 1 3.8981e-09 
1772 1 -50.1427 17.0784 0.216446 1 7.31247e-09 
1773 1 -48.0686 15.8809 0.893817 1 2.40771e-09 
2246 1 -46.8241 18.0364 0.893784 1 7.66779e-09 
2247 1 -44.7499 16.8389 1.57116 1 5.39555e-09 
2721 1 -42.6758 17.0784 0.216275 1 1.42526e-09 
2723 1 -41.4313 17.7969 2.24853 1 1.64966e-09 
2763 1 -42.6758 15.6413 2.24855 1 4.43276e-09 
2765 1 -40.6016 15.8808 0.893669 1 2.79686e-09 
3196 1 -39.3572 18.0363 0.893637 1 2.80873e-09 
3239 1 -37.283 16.8388 1.57103 1 2.60072e-09 
3713 1 -35.2089 15.6412 2.24842 1 4.49413e-09 
3714 1 -33.9644 17.7967 2.24839 1 3.42289e-09 
3716 1 -35.2089 17.0782 0.216132 1 3.2758e-09 
3717 1 -33.1347 15.8806 0.893529 1 4.83664e-09 
4190 1 -31.8902 18.0361 0.893505 1 4.23421e-09 
4191 1 -29.8161 16.8384 1.57093 1 9.91028e-09 
4665 1 -27.742 17.0779 0.21608 1 2.06476e-08 
4667 1 -26.4975 17.7963 2.24834 1 3.69965e-08 
4707 1 -27.742 15.6408 2.24836 1 2.60275e-08 
4709 1 -25.6679 15.8803 0.893535 1 6.81916e-08 
5140 1 -24.4233 18.0358 0.89353 1 8.26648e-08 
5183 1 -22.349 16.8381 1.57094 1 1.46913e-07 
5657 1 -20.2745 15.6406 2.24823 1 3.30379e-07 
5658 1 -19.0296 17.7959 2.24826 1 8.48427e-07 
5660 1 -20.2747 17.0775 0.216249 1 5.01014e-07 
5661 1 -18.2 15.8799 0.893495 1 1.278e-06 
6134 1 -16.9549 18.0351 0.893558 1 4.35125e-06 
6135 1 -14.8796 16.8373 1.5707 1 1.74684e-05 
6609 1 -12.805 17.0761 0.215519 1 4.08665e-05 
6651 1 -12.8044 15.639 2.24818 1 5.85122e-05 
6611 1 -11.5641 17.7961 2.24789 1 3.29044e-05 
6653 1 -10.7308 15.8771 0.892569 1 0.00011345 
7084 1 -9.49324 18.0352 0.891406 1 0.000196266 
7127 1 -7.42476 16.8383 1.56729 1 0.00172898 
7601 1 -5.36124 15.6405 2.23491 1 0.0204853 
7604 1 -5.35131 17.0797 0.221738 1 0.0161242 
7602 1 -4.05494 17.8007 2.28528 1 0.160838 
7605 1 -3.30057 15.9199 0.910644 1 0.479769 
8072 1 -2.04845 17.9618 0.827239 1 0.898809 
9282 2 0.0125655 16.881 1.56437 5 3.97248 
9682 2 3.03367 17.024 0.566511 5 1.50504 
9723 2 4.39199 16.3263 2.60244 1 0.108289 
9725 2 5.56915 17.0421 0.560007 1 0.0271571 
9726 2 6.84498 16.3325 2.59264 1 0.0106708 
10212 2 8.07248 17.053 0.560238 1 0.00284147 
10253 2 9.32461 16.335 2.58892 1 0.00106612 
10255 2 10.5658 17.056 0.558106 1 0.000313565 
10256 2 11.8118 16.3359 2.58711 1 0.000134199 
10819 2 13.0558 17.0559 0.555859 1 4.30939e-05 
10860 2 14.3005 16.3359 2.58611 1 2.61912e-05 
10862 2 15.5447 17.055 0.554282 1 8.15639e-06 
10863 2 16.7892 16.3356 2.58555 1 6.82087e-06 
11463 2 18.0334 17.0543 0.553369 1 2.11367e-06 
11504 2 19.2778 16.3353 2.58523 1 1.98071e-06 
11506 2 20.522 17.0538 0.55289 1 6.74689e-07 
11507 2 21.7665 16.3351 2.58504 1 5.75102e-07 
12111 2 23.0107 17.0536 0.552664 1 2.68732e-07 
66 4 -65.9065 18.9944 1.57139 5 12.3904 
69 4 -63.8323 19.2339 0.216537 1 6.9976e-16 
313 4 -62.5878 19.9524 2.24881 1 7e-16 
317 4 -60.5136 20.1919 0.893962 1 1.59922e-15 
776 4 -58.4394 18.9944 1.57139 1 1.90263e-09 
778 1 -56.3652 19.2339 0.216517 1 6.96656e-09 
1251 1 -55.1207 19.9525 2.24878 1 3.049e-09 
1253 1 -53.0465 20.192 0.893903 1 3.98919e-09 
1726 1 -50.9724 18.9945 1.5713 1 3.34495e-09 
1729 1 -48.8982 19.234 0.216401 1 6.32661e-09 
2201 1 -47.6537 19.9525 2.24864 1 6.28997e-09 
2205 1 -45.5796 20.192 0.893745 1 2.64579e-09 
2720 1 -43.5055 18.9944 1.57114 1 1.07359e-09 
2722 1 -41.4313 19.2339 0.216253 1 3.41283e-09 
3195 1 -40.1869 19.9524 2.2485 1 7.78022e-09 
3197 1 -38.1127 20.1919 0.893621 1 8.41354e-09 
3670 1 -36.0385 18.9943 1.571 1 6.12229e-09 
3673 1 -33.9644 19.2337 0.216111 1 2.66584e-09 
4145 1 -32.7199 19.9521 2.24837 1 3.11281e-09 
4149 1 -30.6458 20.1916 0.893499 1 4.15686e-09 
4664 1 -28.5716 18.9939 1.57092 1 2.00282e-08 
4666 1 -26.4975 19.2334 0.216092 1 3.07666e-08 
5139 1 -25.2529 19.9518 2.24836 1 3.78213e-08 
5141 1 -23.1787 20.1912 0.893586 1 1.32322e-07 
5614 1 -21.1043 18.9935 1.57099 1 2.82467e-07 
5617 1 -19.0299 19.2328 0.216311 1 1.37006e-06 
6089 1 -17.7851 19.9514 2.24824 1 1.20827e-06 
6093 1 -15.7112 20.191 0.893372 1 3.08328e-06 
6608 1 -13.6368 18.9937 1.5704 1 1.25256e-05 
6610 1 -11.5639 19.2335 0.21453 1 5.34954e-05 
7083 1 -10.3224 19.9534 2.24692 1 0.000100805 
7085 1 -8.25083 20.1928 0.893359 1 0.000879838 
7558 1 -6.1729 18.9953 1.58373 1 0.0105721 
7561 1 -4.15214 19.2245 0.233135 1 0.108246 
8027 1 -2.90937 19.9843 2.20057 1 0.35324 
8031 1 -0.598015 20.4011 0.839156 5 6.79683 
9681 2 1.64142 18.734 1.75547 5 4.92145 
9684 2 4.28785 18.7119 1.89465 1 0.0910134 
10211 2 6.81216 18.7248 1.91054 1 0.00770389 
10214 2 9.31505 18.7303 1.91281 1 0.000919217 
10818 2 11.8092 18.7317 1.91141 1 0.000126399 
10821 2 14.2998 18.7315 1.90979 1 2.2566e-05 
11462 2 16.789 18.731 1.90867 1 5.12172e-06 
11465 2 19.2778 18.7306 1.90803 1 1.40437e-06 
12110 2 21.7665 18.7303 1.90769 1 4.06945e-07 
57 4 -66.7361 22.3475 0.893962 5 30.976 
67 4 -64.6619 21.15 1.57139 1 5.99941e-16 
316 4 -62.5878 21.3895 0.216537 1 9.99759e-16 
314 4 -61.3433 22.108 2.24881 1 7e-16 
734 4 -59.2691 22.3475 0.893962 1 1.59922e-15 
735 4 -57.1949 21.15 1.57139 1 7.14154e-09 
1209 1 -55.1207 21.3895 0.216507 1 4.06339e-09 
1211 1 -53.8762 22.108 2.24876 1 3.08599e-09 
1684 1 -51.802 22.3475 0.893886 1 2.98013e-09 
1727 1 -49.7279 21.15 1.57127 1 4.62155e-09 
2202 1 -46.4092 22.108 2.24861 1 5.90345e-09 
2204 1 -47.6537 21.3895 0.21636 1 4.17851e-09 
2678 1 -44.3351 22.3475 0.893733 1 3.50015e-09 
2679 1 -42.261 21.15 1.57112 1 3.70441e-09 
3153 1 -40.1868 21.3894 0.216238 1 7.15923e-09 
3155 1 -38.9423 22.1079 2.2485 1 2.1026e-09 
3628 1 -36.8682 22.3474 0.893602 1 4.03752e-09 
3671 1 -34.794 21.1498 1.57098 1 2.90382e-09 
4146 1 -31.4754 22.1076 2.24837 1 5.99485e-09 
4148 1 -32.7199 21.3892 0.216099 1 1.26486e-09 
4622 1 -29.4013 22.347 0.893514 1 7.44908e-09 
4623 1 -27.3271 21.1494 1.57094 1 2.0526e-08 
5097 1 -25.253 21.3888 0.216138 1 5.14933e-08 
5099 1 -24.0084 22.1073 2.24839 1 7.17012e-08 
5572 1 -21.9343 22.3467 0.893639 1 2.49509e-07 
5615 1 -19.8598 21.149 1.57101 1 4.13475e-07 
6092 1 -17.7859 21.3885 0.21628 1 1.49948e-06 
6090 1 -16.541 22.1074 2.24796 1 2.34911e-06 
6566 1 -14.467 22.3475 0.892627 1 1.02314e-05 
6567 1 -12.3934 21.1507 1.56938 1 2.6028e-05 
7041 1 -10.3201 21.3917 0.212685 1 0.000119854 
7043 1 -9.07664 22.109 2.24451 1 0.000352188 
7516 1 -7.00605 22.3538 0.889871 1 0.00294733 
7559 1 -4.92117 21.1758 1.55798 1 0.0267697 
8030 1 -2.78098 21.4352 0.199676 5 1.75868 
8028 1 -1.6421 22.0571 2.27846 5 5.38975 
9637 2 0.574709 22.7772 2.19087 5 6.09245 
9640 2 1.82876 21.0656 1.10447 5 4.70805 
10123 2 3.03278 22.7837 2.54283 1 0.159893 
10168 2 4.3222 21.1245 1.21338 1 0.0156867 
10166 2 5.54968 22.8035 2.57474 1 0.00325429 
10170 2 6.82035 21.1294 1.23506 1 0.00150456 
10730 2 8.05722 22.8047 2.58401 1 0.000365523 
10773 2 10.5568 22.8044 2.58664 1 0.000121631 
10775 2 9.31645 21.1297 1.23743 1 0.000404312 
10777 2 11.8089 21.1286 1.2354 1 0.000109809 
11374 2 13.051 22.8036 2.58679 1 4.26812e-05 
11417 2 15.5423 22.8029 2.58625 1 1.30495e-05 
11419 2 14.2991 21.1274 1.23317 1 2.71263e-05 
11421 2 16.7883 21.1264 1.23163 1 6.01223e-06 
12022 2 18.0321 22.8023 2.58569 1 3.43186e-06 
12065 2 20.5213 22.802 2.58528 1 8.14544e-07 
12067 2 19.2772 21.1258 1.23076 1 1.20009e-06 
12069 2 21.7661 21.1254 1.23032 1 2.5201e-07 
12670 2 23.0103 22.8018 2.58507 1 2.16605e-07 
58 4 -65.4916 24.503 0.893962 5 12.3904 
287 4 -63.4174 23.3055 1.57139 1 8.9994e-16 
288 4 -62.1729 25.4611 1.57139 1 3.9994e-16 
290 4 -61.3433 23.545 0.216537 1 4.9976e-16 
690 4 -60.0987 24.2635 2.24881 1 4.00001e-16 
693 4 -60.0987 25.7006 0.216537 1 6.99761e-16 
694 4 -58.0246 24.503 0.893962 1 1.29106e-09 
1167 1 -54.7059 25.4611 1.57138 1 6.60619e-09 
1208 1 -55.9504 23.3055 1.57136 1 3.43421e-09 
1210 1 -53.8762 23.5451 0.216497 1 5.3929e-09 
1641 1 -52.6317 25.7006 0.216504 1 8.92877e-09 
1683 1 -52.6317 24.2636 2.24876 1 7.92117e-09 
1685 1 -50.5575 24.5031 0.893872 1 5.3309e-09 
2158 1 -48.4834 23.3056 1.57124 1 1.38922e-09 
2159 1 -47.2389 25.4611 1.57122 1 4.69515e-09 
2161 1 -46.4093 23.5451 0.216337 1 6.56644e-09 
2633 1 -45.1648 24.2636 2.24859 1 1.21462e-08 
2636 1 -45.1648 25.7006 0.216312 1 3.91616e-09 
2637 1 -43.0906 24.5031 0.893709 1 3.26049e-09 
3152 1 -41.0165 23.3055 1.57112 1 5.23213e-09 
3111 1 -39.772 25.461 1.57109 1 2.40316e-09 
3154 1 -38.9423 23.5449 0.216224 1 4.34032e-09 
3585 1 -37.6978 25.7005 0.216189 1 1.30908e-09 
3627 1 -37.6978 24.2634 2.24848 1 3.24419e-09 
3629 1 -35.6237 24.5029 0.893582 1 5.0553e-09 
4102 1 -33.5496 23.3053 1.57097 1 1.41662e-09 
4103 1 -32.3051 25.4608 1.57096 1 2.39187e-09 
4105 1 -31.4754 23.5447 0.216095 1 2.54468e-09 
4577 1 -30.2309 24.2631 2.24837 1 1.19181e-08 
4580 1 -30.231 25.7002 0.216094 1 7.15228e-09 
4581 1 -28.1568 24.5025 0.893535 1 2.16012e-08 
5096 1 -26.0826 23.3049 1.57098 1 4.72419e-08 
5055 1 -24.8382 25.4604 1.57099 1 9.6605e-08 
5098 1 -24.0086 23.5443 0.216189 1 1.15676e-07 
5529 1 -22.7642 25.6999 0.216226 1 3.47133e-07 
5571 1 -22.7639 24.2628 2.24839 1 1.40447e-07 
5573 1 -20.69 24.5023 0.893633 1 5.99068e-07 
6046 1 -18.6155 23.3048 1.57088 1 7.2246e-07 
6047 1 -17.3706 25.4605 1.5706 1 1.54216e-06 
6049 1 -16.5417 23.5445 0.215981 1 3.5165e-06 
6521 1 -15.296 24.2632 2.24753 1 4.75758e-06 
6524 1 -15.2961 25.7001 0.2155 1 7.61625e-06 
6525 1 -13.2212 24.5031 0.891671 1 2.89713e-05 
7040 1 -11.1479 23.3067 1.56818 1 6.08609e-05 
6999 1 -9.89738 25.4597 1.56922 1 0.000254374 
7042 1 -9.0732 23.549 0.210947 1 0.00032106 
7473 1 -7.82078 25.6982 0.206238 1 0.00141216 
7515 1 -7.82183 24.2612 2.24564 1 0.0013989 
7517 1 -5.75112 24.5009 0.879664 1 0.0115994 
7984 1 -3.62844 23.3108 1.52813 1 0.181386 
7985 1 -2.30661 25.4342 1.51983 5 1.80244 
7987 1 -1.20393 23.521 0.26229 5 6.35732 
10081 2 0.405035 25.1315 1.95414 5 4.09341 
10126 2 1.85111 23.5862 0.452447 5 0.765253 
10124 2 3.01598 25.1919 1.91907 1 0.122776 
10127 2 4.3175 23.5305 0.542004 1 0.0223713 
10687 2 5.54164 25.2023 1.91042 1 0.018242 
10731 2 8.05377 25.2011 1.90942 1 0.00268734 
10733 2 6.81388 23.5284 0.556924 1 0.00235937 
10734 2 9.31189 23.5264 0.559148 1 0.00053073 
11331 2 10.5552 25.2 1.90964 1 0.00043915 
11375 2 13.0502 25.1989 1.90927 1 8.35896e-05 
11377 2 11.806 23.5244 0.557563 1 0.000126887 
11378 2 14.2973 23.5227 0.555562 1 2.90781e-05 
11979 2 15.5419 25.198 1.90866 1 1.77576e-05 
12023 2 18.0319 25.1974 1.90813 1 3.99848e-06 
12025 2 16.7872 23.5215 0.554106 1 6.3981e-06 
12026 2 19.2765 23.5208 0.553259 1 1.4706e-06 
12627 2 20.5212 25.197 1.90777 1 9.44467e-07 
12671 2 23.0103 25.1968 1.90757 1 2.62014e-07 
12673 2 21.7656 23.5204 0.55283 1 4.1763e-07 
53 4 -66.3213 27.8561 0.216537 5 30.976 
54 4 -66.3213 26.4191 2.24881 5 30.976 
266 4 -64.2471 26.6586 0.893962 1 1.79922e-15 
652 4 -60.9284 27.6166 1.57139 1 4.9994e-16 
655 4 -58.8542 27.8561 0.216537 1 1.72889e-10 
691 4 -58.8542 26.4191 2.24881 1 1.08806e-10 
1166 1 -56.7801 26.6586 0.893964 1 3.26874e-09 
1640 1 -53.4614 27.6166 1.57139 1 1.79891e-08 
1642 1 -51.3872 27.8562 0.216488 1 9.0587e-09 
1643 1 -51.3872 26.4191 2.24878 1 1.70624e-08 
2116 1 -49.3131 26.6587 0.893855 1 5.98756e-09 
2590 1 -45.9944 27.6167 1.57119 1 1.26186e-09 
2593 1 -43.9203 27.8561 0.216289 1 4.27525e-09 
2634 1 -43.9203 26.4191 2.24857 1 6.59003e-09 
3110 1 -41.8461 26.6586 0.893685 1 6.35295e-09 
3584 1 -38.5275 27.6165 1.57106 1 1.71449e-09 
3586 1 -36.4534 27.856 0.216163 1 1.7115e-09 
3587 1 -36.4534 26.419 2.24845 1 3.75083e-09 
4060 1 -34.3792 26.6584 0.89356 1 4.55239e-09 
4534 1 -31.0606 27.6163 1.57095 1 1.69835e-08 
4537 1 -28.9865 27.8557 0.216093 1 1.37177e-08 
4578 1 -28.9865 26.4186 2.24837 1 2.22451e-08 
5054 1 -26.9124 26.658 0.893549 1 4.50413e-08 
5528 1 -23.5937 27.616 1.57096 1 1.44558e-07 
5530 1 -21.5196 27.8555 0.216225 1 4.73324e-07 
5531 1 -21.5194 26.4184 2.24831 1 1.80072e-07 
6004 1 -19.4452 26.6579 0.893542 1 7.268e-07 
6478 1 -16.1249 27.6157 1.57047 1 5.17404e-06 
6481 1 -14.049 27.8545 0.215488 1 3.16939e-05 
6522 1 -14.0501 26.4181 2.24736 1 1.13818e-05 
6998 1 -11.9731 26.6566 0.892003 1 8.01273e-05 
7472 1 -8.65621 27.612 1.569 1 0.00053626 
7474 1 -6.58052 27.8462 0.210851 1 0.00314157 
7475 1 -6.58226 26.411 2.23629 1 0.00514974 
7942 1 -4.48529 26.6547 0.891246 1 0.0572039 
8349 1 -1.37136 27.7134 1.61487 5 5.60651 
10082 2 0.846901 27.5557 1.29266 5 6.52401 
10645 2 3.19602 27.5629 1.23295 1 0.333686 
10688 2 5.6118 27.5824 1.22939 1 0.0355416 
11289 2 8.08071 27.5912 1.23159 1 0.00331197 
11332 2 10.5658 27.5938 1.23229 1 0.000308538 
11937 2 13.0546 27.5937 1.23183 1 3.90532e-05 
11980 2 15.5438 27.593 1.23114 1 7.5014e-06 
12585 2 18.0328 27.5924 1.2306 1 1.7369e-06 
12628 2 20.5217 27.592 1.23026 1 4.16057e-07 
13233 2 23.0105 27.5918 1.23008 1 1.25019e-07 
249 4 -65.0768 30.0117 0.216537 5 12.3904 
265 4 -65.0768 28.5746 2.24881 5 12.3904 
251 4 -63.8323 30.7302 2.24881 1 4e-16 
267 4 -63.0026 28.8141 0.893962 1 1.09922e-15 
619 4 -61.7581 30.9697 0.893962 1 2.09922e-15 
653 4 -59.6839 29.7722 1.57139 1 1.09994e-15 
1121 4 -57.6097 28.5746 2.24881 1 1.93057e-09 
1124 4 -57.6097 30.0117 0.216537 1 2.54478e-09 
1122 1 -56.3652 30.7302 2.2488 1 4.65706e-09 
1125 1 -55.5356 28.8141 0.893978 1 1.2786e-08 
1598 1 -54.2911 30.9697 0.893932 1 3.26319e-09 
1599 1 -52.2169 29.7722 1.57134 1 3.90708e-09 
2073 1 -50.1427 30.0117 0.216446 1 7.31247e-09 
2075 1 -48.8982 30.7302 2.24869 1 3.89812e-09 
2115 1 -50.1427 28.5747 2.24874 1 1.04669e-08 
2117 1 -48.0686 28.8142 0.893817 1 2.40769e-09 
2548 1 -46.8241 30.9697 0.893784 1 7.6678e-09 
2591 1 -44.7499 29.7722 1.57116 1 5.39554e-09 
3065 1 -42.6758 28.5746 2.24855 1 4.43278e-09 
3066 1 -41.4313 30.7302 2.24853 1 1.64963e-09 
3068 1 -42.6758 30.0117 0.216275 1 1.42525e-09 
3069 1 -40.6016 28.8141 0.893669 1 2.79685e-09 
3542 1 -39.3572 30.9696 0.893637 1 2.80872e-09 
3543 1 -37.283 29.7721 1.57103 1 2.60073e-09 