ITEM: TIMESTEP
0
ITEM: NUMBER OF ATOMS
30128
ITEM: BOX BOUNDS ss pp pp
-69.5479 121.843
0 34.8462
0 49.28
ITEM: ATOMS id type x y z c_cna c_csd 
704 4 -69.1922 0.628551 0.416621 5 30.976 
707 4 -68.8367 2.05085 2.42805 5 24.7808 
1159 4 -66.881 1.16191 1.17091 1 8.99845e-16 
1161 4 -64.5698 1.69527 1.92519 1 9.99364e-16 
1714 4 -62.6141 0.806338 0.66805 1 7.04811e-16 
1749 4 -60.3029 1.3397 1.42234 1 2.3771e-08 
2382 1 -57.9917 1.87315 2.17666 1 1.11539e-09 
2385 1 -58.3472 0.450845 0.16523 1 1.67363e-09 
2386 1 -56.036 0.9843 0.919563 1 3.50595e-09 
3084 1 -53.7247 1.51772 1.67391 1 2.99853e-09 
3085 1 -51.7691 0.628872 0.416808 1 4.10687e-09 
3086 1 -51.4135 2.05117 2.42825 1 5.05867e-09 
3743 1 -49.4578 1.16232 1.17118 1 9.43625e-09 
3787 1 -47.1466 1.69576 1.92561 1 1.20058e-09 
4446 1 -45.1909 0.806896 0.668573 1 5.46841e-09 
4447 1 -42.8796 1.34036 1.42295 1 3.05186e-09 
5105 1 -40.924 0.451536 0.165866 1 1.40594e-08 
5147 1 -40.5684 1.87385 2.17732 1 8.76565e-09 
5149 1 -38.6127 0.984986 0.92025 1 1.78088e-08 
5806 1 -36.3014 1.5184 1.6747 1 3.167e-09 
5809 1 -34.3458 0.629501 0.41771 1 1.23363e-08 
5850 1 -33.9902 2.05182 2.42915 1 9.46808e-09 
6509 1 -32.0345 1.16297 1.17212 1 4.24842e-09 
6511 1 -29.7232 1.69647 1.92651 1 1.99179e-09 
7168 1 -27.7675 0.807632 0.669485 1 4.24482e-09 
7212 1 -25.4563 1.34111 1.42392 1 2.94001e-09 
7868 1 -23.145 1.87459 2.17832 1 4.14568e-09 
7871 1 -23.5006 0.452249 0.166895 1 4.90499e-09 
7872 1 -21.1893 0.98574 0.921271 1 1.38381e-08 
8560 1 -18.8782 1.51926 1.6756 1 9.42823e-08 
8561 1 -16.9225 0.63037 0.418466 1 3.50217e-07 
8562 1 -16.5671 2.05283 2.42988 1 7.04649e-07 
9166 1 -14.6116 1.16406 1.17262 1 2.6966e-06 
9210 1 -12.3011 1.69801 1.92675 1 1.89393e-05 
9749 1 -10.346 0.809558 0.669422 1 4.74262e-05 
9750 1 -8.03741 1.34633 1.42329 1 0.00036818 
10190 1 -6.08877 0.458227 0.166405 1 0.00313369 
10232 1 -5.72483 1.88582 2.17475 1 0.00177545 
10234 1 -3.78419 1.00233 0.912226 1 0.0125887 
10559 1 -1.4829 1.55501 1.67804 5 4.82491 
11209 2 0.300724 0.543693 0.507637 5 6.86766 
11507 2 2.5614 0.320247 0.715061 5 4.57078 
11511 2 4.34837 1.22394 1.97753 1 0.145627 
11958 2 6.65268 0.673615 1.20016 1 0.00590437 
11959 2 8.06342 2.4407 0.189075 1 0.00274524 
11960 2 8.59862 1.55655 2.45944 1 0.000937076 
11961 2 8.95521 0.127235 0.45002 1 0.00100679 
12476 2 10.9082 1.01691 1.70659 1 0.000171954 
12520 2 13.217 0.480675 0.953096 1 2.00841e-05 
13106 2 15.1725 1.36972 2.2104 1 7.08303e-06 
13109 2 17.4831 0.83597 1.45637 1 9.71039e-07 
13149 2 18.9052 2.61387 0.450722 1 2.40889e-07 
13794 2 19.794 0.302551 0.702194 1 1.76679e-07 
13795 2 21.7497 1.19166 1.95926 1 4.64678e-08 
14444 2 24.0608 0.658388 1.20488 1 7.14128e-09 
14448 2 26.0165 1.54741 2.4619 1 3.78255e-09 
14488 2 25.4831 2.43632 0.199071 1 3.07082e-09 
1144 4 -68.3033 2.93978 0.165193 5 18.5856 
1155 4 -67.9477 4.36207 2.17662 5 12.3904 
1157 4 -65.9921 3.47314 0.919478 1 7.0297e-16 
1711 4 -63.6809 4.0065 1.67376 1 9.00163e-16 
1715 4 -61.7252 3.11757 0.416621 1 1.44793e-09 
1745 4 -61.3696 4.53986 2.42805 1 3.8992e-09 
2381 1 -59.414 3.65096 1.17093 1 7.29548e-09 
2384 1 -57.1027 4.1844 1.92526 1 2.55486e-09 
3041 1 -55.147 3.29554 0.668159 1 1.55726e-09 
3082 1 -52.8358 3.82899 1.4225 1 1.26606e-09 
3739 1 -50.5245 4.36245 2.17686 1 5.45833e-09 
3742 1 -50.8801 2.94014 0.16542 1 3.96456e-09 
3744 1 -48.5689 3.47359 0.919813 1 4.20549e-09 
4442 1 -46.2576 4.00702 1.67425 1 7.11198e-09 
4444 1 -44.302 3.11816 0.417193 1 5.57109e-09 
4445 1 -43.9464 4.54046 2.42865 1 8.25232e-09 
5103 1 -41.9907 3.65164 1.17157 1 1.53654e-09 
5145 1 -39.6794 4.1851 1.92593 1 8.14695e-09 
5805 1 -37.7237 3.29624 0.668878 1 1.43626e-08 
5807 1 -35.4125 3.82965 1.42334 1 4.6922e-09 
6466 1 -33.4568 2.94076 0.166329 1 1.31689e-08 
6505 1 -33.1012 4.3631 2.17777 1 3.43594e-09 
6507 1 -31.1455 3.47425 0.920729 1 4.54679e-09 
7165 1 -28.8343 4.00775 1.67513 1 6.17217e-09 
7169 1 -26.8786 3.11892 0.418114 1 3.51557e-09 
7208 1 -26.523 4.54124 2.42956 1 5.53094e-09 
7867 1 -24.5673 3.65239 1.17254 1 4.62902e-09 
7870 1 -22.2561 4.18588 1.92694 1 7.33259e-09 
8517 1 -20.3004 3.29705 0.669863 1 2.15843e-08 
8558 1 -17.9892 3.83059 1.42418 1 1.27569e-07 
9162 1 -15.678 4.36412 2.17851 1 5.12227e-07 
9165 1 -16.0335 2.94182 0.167022 1 4.44885e-07 
9167 1 -13.7223 3.47562 0.921222 1 3.32651e-06 
9745 1 -11.4107 4.00937 1.67549 1 2.56799e-05 
9747 1 -9.45519 3.1217 0.417444 1 0.000115392 
9748 1 -9.09721 4.54213 2.4301 1 0.000202037 
10188 1 -7.14102 3.65637 1.17007 1 0.000976694 
10230 1 -4.82346 4.19024 1.92797 1 0.00683249 
10558 1 -2.90333 3.30334 0.638998 1 0.0888853 
10560 1 -0.674466 3.81758 1.36977 5 5.14365 
11211 2 1.3462 4.03416 2.43419 5 10.1003 
11212 2 1.42991 2.69616 0.4549 5 2.8471 
11509 2 3.49468 3.48264 1.68607 1 0.300435 
11552 2 4.90005 5.30824 0.715914 1 0.0547624 
11551 2 5.76514 2.97742 0.933229 1 0.022276 
11962 2 7.70231 3.86376 2.20791 1 0.00207255 
11965 2 10.0165 3.32845 1.45347 1 0.000326728 
12002 2 11.4404 5.10471 0.449801 1 8.23527e-05 
12521 2 12.328 2.79299 0.700935 1 4.0357e-05 
12522 2 14.2832 3.68113 1.95894 1 9.18005e-06 
13107 2 16.5942 3.14745 1.20486 1 1.56425e-06 
13150 2 18.0163 4.92522 0.199254 1 5.71747e-07 
13113 2 18.5497 4.03627 2.46216 1 4.66456e-07 
13796 2 20.8608 3.5029 1.70785 1 8.94245e-08 
13797 2 22.283 5.2808 0.702106 1 2.61414e-08 
13799 2 23.172 2.96959 0.953493 1 1.76795e-08 
14446 2 25.1276 3.8586 2.21053 1 7.38378e-09 
1142 4 -69.37 6.13994 1.17091 5 37.1712 
1153 4 -67.0588 6.6733 1.92519 1 9.99364e-16 
1710 4 -65.1031 5.78437 0.66805 1 8.04811e-16 
1712 4 -62.7919 6.31773 1.42234 1 1.1e-15 
2341 4 -60.8363 5.4288 0.165193 1 1.17393e-08 
2377 4 -60.4807 6.85109 2.17662 1 1.60306e-08 
2379 1 -58.525 5.96222 0.919522 1 2.71166e-09 
3038 1 -56.2138 6.49567 1.67385 1 1.4468e-09 
3042 1 -54.2581 5.6068 0.416758 1 2.49043e-09 
3078 1 -53.9025 7.02912 2.42819 1 9.36782e-10 
3702 1 -53.3692 7.91807 0.165343 1 1.32531e-09 
3738 1 -51.9468 6.14026 1.17109 1 2.42845e-09 
3741 1 -49.6356 6.67371 1.92547 1 5.03552e-09 
4402 1 -47.6799 5.78484 0.668437 1 2.1992e-09 
4440 1 -45.3687 6.31827 1.42286 1 4.38944e-09 
5099 1 -43.0574 6.85172 2.17725 1 6.21078e-09 
5102 1 -43.413 5.42942 0.1658 1 4.18351e-09 
5104 1 -41.1017 5.96289 0.920175 1 9.2389e-10 
5801 1 -38.7905 6.49636 1.67455 1 7.86502e-09 
5803 1 -36.8348 5.60749 0.417518 1 6.19018e-09 
5804 1 -36.4792 7.0298 2.42898 1 4.85431e-09 
6463 1 -35.9458 7.91875 0.166156 1 3.24664e-09 
6464 1 -34.5235 6.14092 1.17197 1 3.91164e-09 
6503 1 -32.2123 6.67438 1.92639 1 5.60405e-09 
7164 1 -30.2566 5.78553 0.669341 1 4.44005e-09 
7166 1 -27.9453 6.31902 1.42375 1 4.53502e-09 
7827 1 -25.9896 5.43019 0.166739 1 3.5088e-09 
7863 1 -25.6341 6.8525 2.17819 1 3.43346e-09 
7865 1 -23.6784 5.96368 0.921153 1 7.34456e-09 
8514 1 -21.3671 6.49715 1.67555 1 9.02621e-09 
8518 1 -19.4115 5.60835 0.418473 1 5.27445e-08 
8554 1 -19.0558 7.03061 2.42995 1 5.68209e-08 
9125 1 -18.5225 7.91961 0.167073 1 9.24902e-08 
9161 1 -17.1002 6.14186 1.17283 1 3.2867e-07 
9164 1 -14.7886 6.67527 1.9273 1 2.15875e-06 
9705 1 -12.8332 5.78683 0.670073 1 6.38281e-06 
9743 1 -10.5212 6.32005 1.42534 1 5.54058e-05 
10184 1 -8.20722 6.85195 2.18276 1 0.000601104 
10187 1 -8.56913 5.43293 0.167093 1 0.000186374 
10189 1 -6.26087 5.96702 0.92522 1 0.00214011 
10554 1 -3.95294 6.49373 1.69931 1 0.0209234 
10556 1 -2.03358 5.65817 0.448972 1 0.208629 
10557 1 -1.62719 7.01925 2.46392 5 5.01008 
10769 1 -0.89059 7.88839 0.11236 5 4.40829 
11213 2 0.298309 6.13734 1.34094 5 5.94794 
11216 2 2.62185 5.87484 1.46635 5 4.24073 
11250 2 3.89281 7.61297 0.418018 1 0.236821 
11553 2 6.81948 6.17278 1.97263 1 0.00697551 
11557 2 8.23543 7.94403 0.954972 1 0.00156061 
11963 2 9.13088 5.63964 1.2062 1 0.00070179 
12003 2 10.5511 7.41521 0.198971 1 0.000173584 
11969 2 11.0812 6.52382 2.46448 1 0.00017799 
12523 2 13.3938 5.99196 1.70821 1 1.73697e-05 
12524 2 14.8165 7.76972 0.702307 1 7.46073e-06 
12526 2 15.7052 5.45875 0.95349 1 3.09434e-06 
13111 2 17.6606 6.3474 2.21086 1 7.29981e-07 
13151 2 19.9719 5.81412 1.45646 1 1.64514e-07 
13155 2 21.3941 7.592 0.450725 1 5.36672e-08 
13803 2 24.2386 6.16979 1.95917 1 5.29597e-09 
13836 2 25.6609 7.94772 0.953369 1 2.71496e-09 
1143 4 -68.4811 8.45117 0.919478 5 12.3904 
1706 4 -66.1699 8.98453 1.67376 1 9.00161e-16 
1708 4 -64.2142 8.0956 0.416621 1 7.95211e-16 
1709 4 -63.8586 9.51789 2.42805 1 1.69984e-15 
2338 4 -63.3253 10.4068 0.165193 1 9.96253e-16 
2339 4 -61.903 8.62896 1.17091 1 1.02596e-09 
2375 1 -59.5918 9.16234 1.92521 1 8.49889e-09 
3035 1 -56.7471 10.5847 0.416694 1 2.20059e-09 
3037 1 -57.6361 8.27348 0.668105 1 1.96345e-09 
3039 1 -55.3248 8.80694 1.42245 1 2.37457e-09 
3734 1 -53.0136 9.34039 2.17678 1 1.19893e-09 
3736 1 -51.0579 8.45153 0.919689 1 4.73737e-09 
4399 1 -48.7467 8.98496 1.67408 1 2.23465e-09 
4403 1 -46.791 8.0961 0.417064 1 1.64873e-09 
4436 1 -46.4354 9.5184 2.4285 1 2.7787e-09 
5064 1 -45.902 10.4074 0.165691 1 3.65538e-09 
5098 1 -44.4797 8.62953 1.17147 1 4.44442e-09 
5101 1 -42.1685 9.16299 1.92586 1 4.19907e-09 
5764 1 -40.2128 8.27415 0.668785 1 3.90258e-09 
5765 1 -39.3238 10.5854 0.417389 1 7.99831e-09 
5799 1 -37.9015 8.8076 1.42317 1 8.59348e-09 
6460 1 -35.5903 9.34105 2.17761 1 6.53747e-09 
6465 1 -33.6346 8.45219 0.92059 1 5.01596e-09 
7160 1 -31.3233 8.98565 1.67501 1 1.52895e-09 
7162 1 -29.3676 8.09681 0.417961 1 3.79873e-09 
7163 1 -29.012 9.51911 2.42942 1 2.54717e-09 
7824 1 -28.4787 10.4081 0.166583 1 7.8123e-09 
7825 1 -27.0564 8.63029 1.17239 1 9.51071e-10 
7861 1 -24.7451 9.16376 1.92682 1 2.70577e-09 
8511 1 -21.9005 10.5862 0.4184 1 7.79569e-09 
8513 1 -22.7894 8.27494 0.669778 1 4.32397e-09 
8515 1 -20.4782 8.8084 1.42417 1 1.12345e-08 
9157 1 -18.1669 9.34181 2.17857 1 7.02686e-08 
9159 1 -16.2112 8.45302 0.921496 1 5.28681e-07 
9702 1 -13.8997 8.98624 1.67602 1 3.37388e-06 
9706 1 -11.945 8.09762 0.418788 1 2.47801e-05 
9739 1 -11.5879 9.51914 2.43061 1 1.95907e-05 
10149 1 -11.0546 10.4082 0.167342 1 1.50595e-05 
10183 1 -9.63385 8.62939 1.17334 1 0.000157021 
10186 1 -7.32413 9.15722 1.92719 1 0.00171809 
10517 1 -5.3655 8.26658 0.668898 1 0.00509896 
10518 1 -4.46 10.5742 0.433177 1 0.0110482 
10552 1 -3.03431 8.76584 1.40129 1 0.093049 
10768 1 -0.753665 9.23938 2.1439 5 5.20298 
11035 2 -0.168659 10.3295 0.0525997 5 5.18372 
11214 2 1.45615 8.26526 1.19975 5 2.90847 
11220 2 3.54913 8.92284 2.45959 1 0.347584 
11251 2 3.05804 9.95074 0.251349 5 2.3283 
11554 2 5.8993 8.45603 1.70276 1 0.0245157 
11555 2 7.33895 10.2457 0.710691 1 0.00402494 
11967 2 10.192 8.83067 2.21228 1 0.000354699 
12004 2 12.5048 8.30183 1.45712 1 3.49639e-05 
12005 2 11.6147 10.6113 1.20582 1 6.49325e-05 
12008 2 13.9267 10.0802 0.450998 1 6.36643e-06 
12530 2 16.7715 8.65835 1.95961 1 1.6944e-06 
12560 2 18.1938 10.4363 0.953763 1 4.34576e-07 
13152 2 19.0829 8.12527 1.20513 1 2.91176e-07 
13153 2 20.5052 9.90316 0.199347 1 9.20566e-08 
13154 2 21.0385 9.01418 2.46222 1 6.52375e-08 
13801 2 23.3497 8.48098 1.70779 1 1.08717e-08 
13837 2 24.772 10.2589 0.701989 1 7.13261e-09 
1141 4 -69.5478 11.6513 1.92519 5 37.1712 
1686 4 -67.5922 10.7624 0.66805 5 6.1952 
1687 4 -66.7032 13.0736 0.416621 1 8.95212e-16 
1704 4 -65.2809 11.2958 1.42234 1 9.00002e-16 
2335 4 -62.9697 11.8291 2.17662 1 1.39936e-15 
2340 4 -61.014 10.9402 0.919478 1 8.35665e-09 
3002 4 -60.1251 13.2514 0.66805 1 2.59435e-08 
3033 1 -58.7028 11.4736 1.6738 1 2.48613e-09 
3036 1 -56.3916 12.0071 2.42812 1 4.47786e-09 
3699 1 -55.8582 12.896 0.165279 1 1.17812e-09 
3700 1 -54.4359 11.1182 1.17103 1 1.91783e-09 
3732 1 -52.1247 11.6517 1.92536 1 8.30025e-09 
4396 1 -49.28 13.074 0.416913 1 3.26874e-09 
4398 1 -50.169 10.7628 0.668295 1 7.29392e-09 
4400 1 -47.8577 11.2962 1.42271 1 2.01346e-09 
5094 1 -45.5465 11.8297 2.17713 1 5.70817e-09 
5096 1 -43.5908 10.9408 0.920085 1 2.09563e-09 
5760 1 -42.7018 13.2521 0.66869 1 5.1716e-09 
5761 1 -41.2795 11.4743 1.67445 1 4.78504e-09 
5795 1 -38.9683 12.0077 2.42882 1 7.24189e-09 
6429 1 -38.4349 12.8967 0.166007 1 7.98667e-09 
6459 1 -37.0126 11.1189 1.17179 1 5.3665e-09 
6462 1 -34.7013 11.6523 1.92625 1 3.33862e-09 
7126 1 -32.7456 10.7635 0.669224 1 3.79594e-09 
7127 1 -31.8567 13.0747 0.417857 1 6.86489e-09 
7158 1 -30.4344 11.2969 1.42364 1 2.44867e-09 
7821 1 -28.1231 11.8304 2.17804 1 5.62008e-09 
7826 1 -26.1674 10.9416 0.921019 1 1.23866e-09 
8478 1 -25.2785 13.2528 0.669657 1 5.655e-09 
8509 1 -23.8562 11.475 1.67546 1 8.66366e-09 
8512 1 -21.5449 12.0085 2.42985 1 1.59394e-08 
9122 1 -21.0115 12.8975 0.167014 1 8.98631e-09 
9123 1 -19.5892 11.1196 1.17279 1 2.41533e-08 
9155 1 -17.2779 11.653 1.92715 1 2.1289e-07 
9701 1 -15.3221 10.7641 0.670087 1 6.81668e-07 
9699 1 -14.4329 13.0753 0.418775 1 2.03334e-06 
9703 1 -13.0107 11.2971 1.42444 1 5.45753e-06 
10179 1 -10.6998 11.8302 2.17866 1 3.93295e-05 
10181 1 -8.74316 10.9399 0.92192 1 0.000165411 
10513 1 -7.84839 13.2534 0.672687 1 0.00116256 
10514 1 -6.43665 11.4714 1.67667 1 0.00272096 
10548 1 -4.14925 12.0113 2.43045 1 0.0394609 
10737 1 -3.53866 12.8812 0.193856 1 0.136228 
10765 1 -0.95678 13.3174 0.922274 5 5.24822 
10767 1 -2.14785 11.1081 1.22104 1 0.227217 
11034 2 0.276345 11.5383 2.05197 5 4.14515 
11218 2 2.68705 11.2855 2.24853 5 3.71885 
11252 2 5.02292 10.7614 1.48636 1 0.0574037 
11253 2 4.03636 13.0445 1.19891 1 0.332567 
11256 2 6.43398 12.5499 0.467835 1 0.0230933 
11561 2 9.30517 11.1406 1.96103 1 0.000974304 
11588 2 10.7232 12.9229 0.955852 1 0.000264208 
12006 2 13.0366 12.3909 0.200448 1 3.33184e-05 
12007 2 13.5709 11.5017 2.46254 1 1.82346e-05 
12012 2 14.9933 13.2802 1.4568 1 4.89041e-06 
12528 2 15.8823 10.9691 1.70819 1 3.00131e-06 
12561 2 17.3047 12.7473 0.702435 1 1.03212e-06 
13156 2 20.1495 11.3253 2.21084 1 1.45705e-07 
13157 2 21.5718 13.1033 1.20505 1 4.8693e-08 
13159 2 22.4608 10.7921 1.45642 1 2.19293e-08 
13187 2 23.883 12.5701 0.450616 1 8.12838e-09 
1683 4 -68.6589 13.9626 1.67376 5 18.5856 
1700 4 -66.3477 14.4959 2.42805 1 1.69984e-15 
2310 4 -65.8143 15.3849 0.165193 1 9.96253e-16 
2334 4 -64.392 13.607 1.17091 1 9.99844e-16 
2332 4 -63.5031 15.9182 0.919478 1 8.0297e-16 
2337 4 -62.0808 14.1404 1.92519 1 9.99364e-16 
3003 1 -59.2362 15.5627 0.416645 1 6.82394e-09 
3031 1 -57.8139 13.7849 1.42237 1 5.72876e-09 
3696 1 -55.5026 14.3183 2.17671 1 2.65089e-09 
3701 1 -53.547 13.4295 0.919616 1 4.1645e-09 
4366 1 -52.658 15.7407 0.668206 1 3.9402e-09 
4394 1 -51.2357 13.9629 1.67397 1 5.50265e-09 
4397 1 -48.9244 14.4964 2.42836 1 8.20519e-09 
5061 1 -48.3911 15.3853 0.165525 1 4.95979e-09 
5062 1 -46.9688 13.6075 1.17133 1 3.56361e-09 
5063 1 -46.0798 15.9187 0.919952 1 5.15305e-09 
5092 1 -44.6575 14.1409 1.92574 1 3.65177e-09 
5758 1 -41.8129 15.5634 0.417284 1 7.56175e-09 
5762 1 -40.3906 13.7856 1.42305 1 4.92161e-09 
6455 1 -38.0793 14.319 2.17744 1 9.17459e-09 
6457 1 -36.1236 13.4301 0.92043 1 3.54378e-09 
7122 1 -35.2347 15.7414 0.669076 1 6.19627e-09 
7123 1 -33.8124 13.9635 1.67489 1 6.11522e-09 
7154 1 -31.5011 14.497 2.4293 1 5.5933e-09 
7793 1 -30.9677 15.386 0.166477 1 8.29487e-09 
7818 1 -28.6564 15.9195 0.92087 1 6.19649e-09 
7820 1 -29.5454 13.6082 1.17226 1 6.42186e-09 
7823 1 -27.2341 14.1417 1.92667 1 4.2786e-09 
8479 1 -24.3895 15.5641 0.418285 1 1.01061e-08 
8507 1 -22.9672 13.7863 1.42407 1 6.54268e-09 
9119 1 -20.6559 14.3198 2.17845 1 1.98135e-08 
9124 1 -18.7002 13.4309 0.921401 1 8.9505e-08 
9669 1 -17.8113 15.7421 0.669975 1 1.15488e-07 
9697 1 -16.3889 13.9643 1.67573 1 3.90264e-07 
9700 1 -14.0777 14.4979 2.42992 1 1.48292e-06 
10146 1 -13.5441 15.3865 0.167226 1 1.94328e-06 
10147 1 -12.1214 13.6086 1.1731 1 1.00262e-05 
10148 1 -11.2331 15.9202 0.921148 1 1.005e-05 
10177 1 -9.81022 14.1426 1.9269 1 7.66116e-05 
10511 1 -6.96334 15.5643 0.418199 1 0.00155026 
10515 1 -5.5255 13.7916 1.42328 1 0.0141913 
10763 1 -3.16936 14.336 2.14473 1 0.208071 
10878 1 -0.660566 15.701 0.600449 5 5.24824 
11036 2 1.30658 15.9 1.68938 5 10.0263 
11038 2 1.67834 13.5608 2.00742 5 5.38184 
11062 2 3.39777 15.376 0.913667 1 0.550516 
11254 2 5.59184 14.8421 0.186038 1 0.0669273 
11255 2 6.0822 13.9975 2.44288 1 0.0379219 
11260 2 7.52581 15.7729 1.4532 1 0.00443728 
11559 2 8.40711 13.4568 1.70803 1 0.00286032 
11589 2 9.8342 15.2338 0.70175 1 0.000597565 
12009 2 12.6822 13.8136 2.21075 1 2.50493e-05 
12010 2 14.1045 15.5916 1.20491 1 9.4144e-06 
12036 2 16.4158 15.0584 0.450956 1 1.92841e-06 
12563 2 18.3717 15.9477 1.70793 1 3.77869e-07 
12562 2 19.2606 13.6364 1.95943 1 2.63522e-07 
12566 2 20.6829 15.4144 0.953655 1 9.67067e-08 
13163 2 23.5275 13.9924 2.46206 1 7.51992e-09 
13188 2 22.9941 14.8813 0.199249 1 1.56849e-08 
13189 2 24.9497 15.7703 1.45626 1 4.88063e-09 
13839 2 25.8387 13.4591 1.70764 1 3.68478e-09 
1681 4 -69.1922 18.0517 0.416621 5 30.976 
1684 4 -67.7699 16.2738 1.42234 5 12.3904 
2308 4 -66.881 18.585 1.17091 1 1.19985e-15 
2330 4 -65.4587 16.8072 2.17662 1 1.39936e-15 
2998 4 -62.6141 18.2294 0.66805 1 7.04811e-16 
2999 4 -61.1918 16.4516 1.67376 1 6.76698e-09 
3000 4 -60.3029 18.7628 1.42234 1 2.37707e-08 
3027 1 -58.8806 16.985 2.42808 1 3.85471e-09 
3671 1 -58.3472 17.874 0.16523 1 1.67369e-09 
3695 1 -56.9249 16.0962 1.17096 1 6.12043e-09 
3693 1 -56.036 18.4074 0.919563 1 3.5059e-09 
3698 1 -54.6137 16.6296 1.92531 1 1.09742e-09 
4367 1 -51.7691 18.052 0.416808 1 4.10687e-09 
4392 1 -50.3467 16.2742 1.42258 1 4.42424e-09 
5057 1 -49.4578 18.5854 1.17118 1 9.43627e-09 
5058 1 -48.0355 16.8076 2.17698 1 3.60533e-09 
5731 1 -45.1909 18.23 0.668573 1 5.4684e-09 
5756 1 -43.7686 16.4522 1.67435 1 4.86242e-09 
5759 1 -41.4573 16.9857 2.42872 1 9.08508e-09 
6426 1 -40.924 17.8746 0.165866 1 1.40594e-08 
6427 1 -39.5016 16.0968 1.17164 1 9.0905e-09 
6428 1 -38.6127 18.4081 0.92025 1 1.78088e-08 
6453 1 -37.1904 16.6303 1.92606 1 9.42797e-09 
7120 1 -34.3458 18.0526 0.41771 1 1.23363e-08 
7124 1 -32.9234 16.2748 1.42351 1 1.31052e-08 
7791 1 -32.0345 18.5861 1.17212 1 4.24842e-09 
7816 1 -30.6121 16.8083 2.17791 1 1.62927e-09 
8474 1 -27.7675 18.2307 0.669485 1 4.24484e-09 
8475 1 -26.3452 16.4529 1.6753 1 1.99919e-09 
8503 1 -24.0339 16.9864 2.42972 1 4.37465e-09 
9094 1 -23.5006 17.8754 0.166895 1 4.90503e-09 
9116 1 -21.1893 18.4089 0.921271 1 1.38381e-08 
9118 1 -22.0783 16.0976 1.17267 1 7.01959e-09 
9121 1 -19.767 16.6311 1.92704 1 2.44169e-08 
9670 1 -16.9225 18.0535 0.418466 1 3.50216e-07 
9695 1 -15.5001 16.2757 1.4242 1 4.28487e-07 
10142 1 -14.6116 18.5872 1.17262 1 2.69661e-06 
10143 1 -13.1892 16.8095 2.17828 1 3.18576e-06 
10484 1 -10.346 18.2327 0.669422 1 4.74264e-05 
10509 1 -8.92304 16.4552 1.6743 1 8.52469e-05 
10512 1 -6.61672 16.9936 2.42784 1 0.000894387 
10734 1 -6.08877 17.8813 0.166405 1 0.0031337 
10735 1 -4.65622 16.1083 1.17479 1 0.0204773 
10736 1 -3.78419 18.4254 0.912226 1 0.0125889 
10761 1 -2.35335 16.6798 1.95368 1 0.214858 
10945 2 0.300723 17.9668 0.507637 5 6.86766 
11063 2 2.5614 17.7434 0.71506 5 4.57077 
11064 2 4.34837 18.647 1.97753 1 0.145627 
11257 2 5.22865 16.3339 2.21064 1 0.0481646 
11258 2 6.65268 18.0967 1.20016 1 0.00590433 
11281 2 8.95521 17.5503 0.45002 1 0.00100679 
11590 2 11.7942 16.1259 1.95797 1 6.77163e-05 
11591 2 10.9082 18.44 1.70659 1 0.000171954 
11594 2 13.217 17.9038 0.953096 1 2.00841e-05 
12037 2 15.5272 17.3697 0.199285 1 3.08679e-06 
12016 2 16.0608 16.4812 2.46197 1 2.02818e-06 
12038 2 17.4831 18.2591 1.45637 1 9.71035e-07 
12564 2 19.794 17.7257 0.702194 1 1.76679e-07 
12570 2 21.7497 18.6148 1.95926 1 4.64679e-08 
13161 2 22.6386 16.3036 2.21068 1 2.2002e-08 
13190 2 24.0608 18.0815 1.20488 1 7.14126e-09 
1682 4 -68.8367 19.474 2.42805 5 24.7808 
2307 4 -68.3033 20.3629 0.165193 5 18.5856 
2309 4 -65.9921 20.8963 0.919478 1 9.0297e-16 
2328 4 -64.5698 19.1184 1.92519 1 9.99364e-16 
2994 4 -63.6809 21.4296 1.67376 1 7.00163e-16 
2996 4 -61.7252 20.5407 0.416621 1 1.44782e-09 
3669 1 -59.414 21.0741 1.17093 1 7.29441e-09 
3691 1 -57.9917 19.2963 2.17666 1 1.11533e-09 
4362 1 -55.147 20.7187 0.668159 1 1.55728e-09 
4363 1 -53.7247 18.9408 1.67391 1 2.99852e-09 
4364 1 -52.8358 21.2521 1.4225 1 1.26606e-09 
4388 1 -51.4135 19.4743 2.42825 1 5.05865e-09 
5036 1 -50.8801 20.3632 0.16542 1 3.96457e-09 
5055 1 -48.5689 20.8967 0.919813 1 4.20547e-09 
5060 1 -47.1466 19.1189 1.92561 1 1.20057e-09 
5728 1 -46.2576 21.4301 1.67425 1 7.112e-09 
5732 1 -44.302 20.5413 0.417193 1 5.5711e-09 
5754 1 -42.8796 18.7635 1.42295 1 3.0519e-09 
6422 1 -41.9907 21.0747 1.17157 1 1.53655e-09 
6423 1 -40.5684 19.297 2.17732 1 8.76566e-09 
7097 1 -37.7237 20.7194 0.668878 1 1.43626e-08 
7118 1 -36.3014 18.9415 1.6747 1 3.16702e-09 
7116 1 -35.4125 21.2528 1.42334 1 4.69222e-09 
7121 1 -33.9902 19.4749 2.42915 1 9.46807e-09 
7790 1 -33.4568 20.3639 0.166329 1 1.31689e-08 
7792 1 -31.1455 20.8974 0.920729 1 4.54681e-09 
7814 1 -29.7232 19.1196 1.92651 1 1.99179e-09 
8470 1 -28.8343 21.4309 1.67513 1 6.17221e-09 
8472 1 -26.8786 20.542 0.418114 1 3.51553e-09 
8476 1 -25.4563 18.7642 1.42392 1 2.94001e-09 
9092 1 -24.5673 21.0755 1.17254 1 4.62901e-09 
9114 1 -23.145 19.2977 2.17832 1 4.14568e-09 
9665 1 -20.3004 20.7202 0.669863 1 2.15843e-08 
9666 1 -18.8782 18.9424 1.6756 1 9.42825e-08 
9667 1 -17.9892 21.2537 1.42418 1 1.27569e-07 
9691 1 -16.5671 19.4759 2.42988 1 7.0465e-07 
10121 1 -16.0335 20.3649 0.167022 1 4.44885e-07 
10140 1 -13.7223 20.8987 0.921222 1 3.3265e-06 
10145 1 -12.3011 19.1211 1.92675 1 1.89391e-05 
10481 1 -11.4107 21.4325 1.67549 1 2.56799e-05 
10485 1 -9.45519 20.5448 0.417444 1 0.000115393 
10507 1 -8.03741 18.7694 1.42329 1 0.00036818 
10730 1 -7.14102 21.0795 1.17007 1 0.000976692 
10731 1 -5.72483 19.3089 2.17475 1 0.00177544 
10857 1 -2.90333 20.7265 0.638999 1 0.0888846 
10876 1 -0.674466 21.2407 1.36977 5 5.14365 
10877 1 -1.4829 18.9781 1.67804 5 4.82491 
10961 2 1.42991 20.1193 0.454899 5 2.8471 
11065 2 3.49468 20.9057 1.68607 1 0.300434 
11068 2 5.76514 20.4005 0.933229 1 0.0222762 
11262 2 7.70231 21.2869 2.20791 1 0.00207255 
11264 2 8.59862 18.9797 2.45944 1 0.000937079 
11282 2 8.06342 19.8638 0.189075 1 0.00274523 
11283 2 10.0165 20.7516 1.45347 1 0.000326728 
11592 2 12.328 20.2161 0.700935 1 4.0357e-05 
11598 2 14.2832 21.1042 1.95894 1 9.18007e-06 
12014 2 15.1725 18.7928 2.2104 1 7.08308e-06 
12039 2 16.5942 20.5706 1.20486 1 1.56425e-06 
12042 2 18.9052 20.037 0.450722 1 2.40888e-07 
12568 2 20.8608 20.926 1.70785 1 8.94245e-08 
12588 2 23.172 20.3927 0.953493 1 1.76794e-08 
13191 2 25.4831 19.8594 0.199071 1 3.07083e-09 
13192 2 26.0165 18.9705 2.4619 1 3.78254e-09 
13194 2 25.1276 21.2817 2.21053 1 7.38366e-09 
2303 4 -69.37 23.5631 1.17091 5 37.1712 
2304 4 -67.9477 21.7852 2.17662 5 12.3904 
2306 4 -67.0588 24.0964 1.92519 1 9.99364e-16 
2975 4 -65.1031 23.2075 0.66805 1 8.04811e-16 
2992 4 -62.7919 23.7408 1.42234 1 7.00004e-16 
2997 4 -61.3696 21.963 2.42805 1 3.90108e-09 
3668 4 -60.8363 22.8519 0.165193 1 1.1745e-08 
3670 1 -58.525 23.3853 0.919522 1 2.71092e-09 
3689 1 -57.1027 21.6075 1.92526 1 2.55478e-09 
4358 1 -56.2138 23.9188 1.67385 1 1.44672e-09 
4360 1 -54.2581 23.0299 0.416758 1 2.49042e-09 
5034 1 -51.9468 23.5634 1.17109 1 2.42843e-09 
5051 1 -49.6356 24.0968 1.92547 1 5.03553e-09 
5053 1 -50.5245 21.7856 2.17686 1 5.45833e-09 
5727 1 -47.6799 23.208 0.668437 1 2.1992e-09 
5729 1 -45.3687 23.7414 1.42286 1 4.38948e-09 
5750 1 -43.9464 21.9636 2.42865 1 8.25235e-09 
6404 1 -43.413 22.8525 0.1658 1 4.18352e-09 
6420 1 -41.1017 23.386 0.920175 1 9.23889e-10 
6425 1 -39.6794 21.6082 1.92593 1 8.14697e-09 
7094 1 -38.7905 23.9195 1.67455 1 7.86502e-09 
7098 1 -36.8348 23.0306 0.417518 1 6.19019e-09 
7786 1 -34.5235 23.564 1.17197 1 3.91165e-09 
7787 1 -33.1012 21.7862 2.17777 1 3.4359e-09 
7789 1 -32.2123 24.0975 1.92639 1 5.60404e-09 
8451 1 -30.2566 23.2086 0.669341 1 4.44006e-09 
8468 1 -27.9453 23.7421 1.42375 1 4.53505e-09 
8473 1 -26.523 21.9643 2.42956 1 5.53097e-09 
9091 1 -25.9896 22.8533 0.166739 1 3.50876e-09 
9093 1 -23.6784 23.3868 0.921153 1 7.34458e-09 
9112 1 -22.2561 21.609 1.92694 1 7.3325e-09 
9661 1 -21.3671 23.9203 1.67555 1 9.02621e-09 
9663 1 -19.4115 23.0315 0.418473 1 5.27444e-08 
10119 1 -17.1002 23.565 1.17283 1 3.2867e-07 
10138 1 -15.678 21.7872 2.17851 1 5.1223e-07 
10136 1 -14.7886 24.0984 1.9273 1 2.15876e-06 
10480 1 -12.8332 23.2099 0.670073 1 6.38275e-06 
10482 1 -10.5212 23.7432 1.42534 1 5.54065e-05 
10503 1 -9.09721 21.9652 2.4301 1 0.000202036 
10712 1 -8.56913 22.856 0.167093 1 0.000186375 
10728 1 -6.26087 23.3901 0.92522 1 0.00214011 
10733 1 -4.82346 21.6134 1.92797 1 0.0068325 
10854 1 -3.95294 23.9168 1.69931 1 0.0209236 
10858 1 -2.03358 23.0813 0.448972 1 0.208627 
10946 2 0.298309 23.5605 1.34093 5 5.94794 
10948 2 1.3462 21.4573 2.43419 5 10.1003 
10963 2 2.62185 23.298 1.46635 5 4.24073 
11066 2 4.90005 22.7314 0.715914 1 0.0547636 
11072 2 6.81948 23.5959 1.97263 1 0.00697544 
11284 2 9.13088 23.0628 1.2062 1 0.000701789 
11286 2 11.0812 23.9469 2.46448 1 0.000177992 
11287 2 11.4404 22.5278 0.449801 1 8.23526e-05 
11596 2 13.3938 23.4151 1.70821 1 1.73697e-05 
11613 2 15.7052 22.8819 0.95349 1 3.09435e-06 
12040 2 18.0163 22.3483 0.199254 1 5.71747e-07 
12043 2 17.6606 23.7705 2.21086 1 7.29979e-07 
12041 2 18.5497 21.4594 2.46216 1 4.66455e-07 
12046 2 19.9719 23.2372 1.45646 1 1.64514e-07 
12589 2 22.283 22.7039 0.702106 1 2.61414e-08 
12590 2 24.2386 23.5929 1.95917 1 5.29597e-09 
2301 4 -68.4811 25.8743 0.919478 5 12.3904 
2972 4 -66.1699 26.4076 1.67376 1 8.00161e-16 
2976 4 -64.2142 25.5187 0.416621 1 5.95212e-16 
3664 4 -61.903 26.0521 1.17091 1 1.02693e-09 
3665 4 -60.4807 24.2742 2.17662 1 1.60291e-08 
3667 1 -59.5918 26.5855 1.92521 1 8.49759e-09 
4343 1 -57.6361 25.6966 0.668105 1 1.96338e-09 
4356 1 -55.3248 26.23 1.42245 1 2.37456e-09 
4361 1 -53.9025 24.4522 2.42819 1 9.36768e-10 
5030 1 -53.0136 26.7635 2.17678 1 1.19892e-09 
5033 1 -53.3692 25.3412 0.165343 1 1.32531e-09 
5035 1 -51.0579 25.8746 0.919689 1 4.73737e-09 
5723 1 -48.7467 26.4081 1.67408 1 2.23466e-09 
5725 1 -46.791 25.5192 0.417064 1 1.64874e-09 
6402 1 -44.4797 26.0526 1.17147 1 4.44441e-09 
6416 1 -42.1685 26.5861 1.92586 1 4.19906e-09 
6418 1 -43.0574 24.2748 2.17725 1 6.21079e-09 
7093 1 -40.2128 25.6973 0.668785 1 3.90259e-09 
7095 1 -37.9015 26.2307 1.42317 1 8.59343e-09 
7112 1 -36.4792 24.4529 2.42898 1 4.85432e-09 
7771 1 -35.9458 25.3419 0.166156 1 3.24662e-09 
7782 1 -35.5903 26.7642 2.17761 1 6.53746e-09 
7784 1 -33.6346 25.8753 0.92059 1 5.01595e-09 
8448 1 -31.3233 26.4088 1.67501 1 1.52895e-09 
8452 1 -29.3676 25.5199 0.417961 1 3.79876e-09 
9087 1 -27.0564 26.0534 1.17239 1 9.51066e-10 
9088 1 -25.6341 24.2756 2.17819 1 3.43348e-09 
9090 1 -24.7451 26.5869 1.92682 1 2.70574e-09 
9646 1 -22.7894 25.6981 0.669778 1 4.32399e-09 
9659 1 -20.4782 26.2315 1.42417 1 1.12345e-08 
9664 1 -19.0558 24.4537 2.42995 1 5.68207e-08 
10115 1 -18.1669 26.7649 2.17857 1 7.02687e-08 
10118 1 -18.5225 25.3427 0.167073 1 9.24904e-08 
10120 1 -16.2112 25.8761 0.921496 1 5.28679e-07 
10476 1 -13.8997 26.4094 1.67602 1 3.37389e-06 
10478 1 -11.945 25.5207 0.418788 1 2.478e-05 
10710 1 -9.63385 26.0525 1.17334 1 0.000157021 
10726 1 -8.20722 24.2751 2.18276 1 0.000601095 
10724 1 -7.32413 26.5803 1.92719 1 0.00171807 
10853 1 -5.3655 25.6897 0.668898 1 0.00509901 
10855 1 -3.03431 26.1889 1.40129 1 0.093049 
10872 1 -1.62719 24.4424 2.46392 5 5.01008 
10909 1 -0.89059 25.3115 0.11236 5 4.40829 
10917 1 -0.753665 26.6625 2.1439 5 5.20298 
10964 2 1.45615 25.6884 1.19975 5 2.90847 
10966 2 3.54913 26.3459 2.45959 1 0.347584 
10967 2 3.89281 25.0361 0.418018 1 0.236822 
11070 2 5.8993 25.8791 1.70276 1 0.0245157 
11084 2 8.23543 25.3671 0.954972 1 0.00156059 
11285 2 10.5511 24.8383 0.198971 1 0.000173584 
11288 2 10.192 26.2538 2.21228 1 0.000354701 
11291 2 12.5048 25.7249 1.45712 1 3.49637e-05 
11614 2 14.8165 25.1928 0.702307 1 7.46074e-06 
11615 2 16.7715 26.0815 1.95961 1 1.6944e-06 
12044 2 19.0829 25.5484 1.20513 1 2.91177e-07 
12050 2 21.0385 26.4373 2.46222 1 6.52373e-08 
12058 2 21.3941 25.0151 0.450725 1 5.36673e-08 
12591 2 23.3497 25.9041 1.70779 1 1.08717e-08 
12594 2 25.6609 25.3708 0.953369 1 2.71497e-09 
2298 4 -69.5478 29.0744 1.92519 5 37.1712 
2971 4 -67.5922 28.1855 0.66805 5 6.1952 
2973 4 -65.2809 28.7189 1.42234 1 7.00002e-16 
2988 4 -63.8586 26.941 2.42805 1 1.49984e-15 
3652 4 -63.3253 27.8299 0.165193 1 6.96253e-16 
3660 4 -62.9697 29.2522 2.17662 1 1.59936e-15 
3662 4 -61.014 28.3633 0.919478 1 8.35651e-09 
4340 1 -58.7028 28.8967 1.6738 1 2.48613e-09 
4344 1 -56.7471 28.0079 0.416694 1 2.20057e-09 
4352 1 -56.3916 29.4302 2.42812 1 4.47782e-09 
5029 1 -54.4359 28.5413 1.17103 1 1.91784e-09 
5032 1 -52.1247 29.0748 1.92536 1 8.30026e-09 
5711 1 -50.169 28.1859 0.668295 1 7.29395e-09 
5721 1 -47.8577 28.7193 1.42271 1 2.01347e-09 
5726 1 -46.4354 26.9415 2.4285 1 2.77867e-09 
6398 1 -45.5465 29.2528 2.17713 1 5.70817e-09 
6401 1 -45.902 27.8305 0.165691 1 3.65538e-09 
6403 1 -43.5908 28.3639 0.920085 1 2.09564e-09 
7089 1 -41.2795 28.8974 1.67445 1 4.78509e-09 
7091 1 -39.3238 28.0085 0.417389 1 7.9983e-09 
7092 1 -38.9683 29.4308 2.42882 1 7.24191e-09 
7769 1 -37.0126 28.542 1.17179 1 5.36649e-09 
7780 1 -34.7013 29.0754 1.92625 1 3.33863e-09 
8447 1 -32.7456 28.1866 0.669224 1 3.79593e-09 
8449 1 -30.4344 28.72 1.42364 1 2.44867e-09 
8464 1 -29.012 26.9422 2.42942 1 2.54716e-09 
9075 1 -28.4787 27.8312 0.166583 1 7.81226e-09 
9083 1 -28.1231 29.2535 2.17804 1 5.62011e-09 
9085 1 -26.1674 28.3647 0.921019 1 1.23864e-09 
9643 1 -23.8562 28.8981 1.67546 1 8.66365e-09 
9647 1 -21.9005 28.0093 0.4184 1 7.79563e-09 
9655 1 -21.5449 29.4316 2.42985 1 1.59395e-08 
10114 1 -19.5892 28.5427 1.17279 1 2.41533e-08 
10117 1 -17.2779 29.0761 1.92715 1 2.12889e-07 
10464 1 -15.3221 28.1872 0.670087 1 6.81669e-07 
10474 1 -13.0107 28.7202 1.42444 1 5.45753e-06 
10479 1 -11.5879 26.9423 2.43061 1 1.95908e-05 
10706 1 -10.6998 29.2533 2.17866 1 3.93297e-05 
10709 1 -11.0546 27.8313 0.167342 1 1.50596e-05 