ITEM: TIMESTEP
0
ITEM: NUMBER OF ATOMS
28764
ITEM: BOX BOUNDS ss pp pp
-66.9184 113.355
0 35.0236
0 49.5308
ITEM: ATOMS id type x y z c_cna c_csd 
1 4 -66.5034 0.27006 2.4161 5 30.976 
33 4 -65.2589 2.3927 2.04087 5 12.3904 
34 4 -64.4292 0.27006 1.04025 1 6.99088e-16 
264 4 -66.5034 1.33138 0.164704 5 30.976 
35 4 -63.1847 2.3927 0.665015 1 1.50345e-15 
173 4 -61.1106 1.33138 1.54056 1 7.99424e-16 
209 4 -59.0364 0.27006 2.4161 1 1.17362e-09 
513 4 -57.7919 2.3927 2.04087 1 3.64019e-09 
569 1 -56.9622 0.270068 1.04023 1 2.8726e-09 
1213 4 -59.0364 1.33138 0.164704 1 7.97136e-10 
516 1 -55.7177 2.39271 0.664992 1 5.8573e-09 
1101 1 -53.6435 1.33143 1.54053 1 2.43866e-09 
1102 1 -51.5694 0.270152 2.41606 1 3.19748e-09 
2404 1 -51.5694 1.33144 0.164637 1 5.53498e-09 
1679 1 -50.3249 2.3928 2.0408 1 5.6204e-09 
1680 1 -49.4953 0.270165 1.04015 1 3.87963e-09 
1681 1 -48.2508 2.39283 0.664865 1 3.32584e-09 
2258 1 -46.1766 1.33155 1.54032 1 6.46099e-09 
2316 1 -44.1025 0.27027 2.41579 1 3.0073e-09 
3589 1 -44.1025 1.33159 0.164386 1 5.54417e-09 
2837 1 -42.858 2.39293 2.04048 1 1.75113e-09 
2898 1 -42.0283 0.270296 1.03985 1 3.78598e-09 
2840 1 -40.7838 2.39296 0.664545 1 1.13922e-09 
3477 1 -38.7097 1.33165 1.53999 1 2.79837e-09 
3478 1 -36.6356 0.270339 2.41542 1 6.39865e-09 
4780 1 -36.6356 1.33165 0.164023 1 6.1877e-09 
4055 1 -35.3911 2.39301 2.04009 1 3.12083e-09 
4056 1 -34.5614 0.270365 1.03944 1 5.86108e-09 
4057 1 -33.3169 2.39304 0.664125 1 4.67643e-09 
4634 1 -31.2428 1.3318 1.53956 1 6.57316e-09 
4692 1 -29.1686 0.270582 2.41502 1 1.21021e-08 
5965 1 -29.1686 1.33183 0.163588 1 2.36135e-08 
5213 1 -27.9241 2.39324 2.03973 1 2.99043e-08 
5216 1 -25.85 2.39322 0.663681 1 5.17593e-08 
5274 1 -27.0945 0.270591 1.03904 1 4.24813e-08 
5853 1 -23.776 1.33197 1.53909 1 1.26912e-07 
5854 1 -21.702 0.270783 2.41443 1 3.79521e-07 
7156 1 -21.7021 1.3318 0.162733 1 2.24847e-07 
6431 1 -20.4577 2.39342 2.03876 1 4.77872e-07 
6432 1 -19.6282 0.270524 1.03776 1 4.53764e-07 
6433 1 -18.384 2.39308 0.66182 1 9.13201e-07 
7010 1 -16.3103 1.33194 1.53614 1 3.79488e-06 
7068 1 -14.2367 0.27108 2.40984 1 1.70186e-05 
7589 1 -12.9923 2.39428 2.03355 1 3.55456e-05 
8341 1 -14.2356 1.33184 0.15938 1 1.77202e-05 
7592 1 -10.9144 2.39626 0.658714 1 0.000121918 
7650 1 -12.1606 0.271828 1.03345 1 5.45182e-05 
8229 1 -8.83923 1.34011 1.53544 1 0.000269726 
8230 1 -6.764 0.289208 2.41664 1 0.00161208 
8807 1 -5.51065 2.42531 2.06045 1 0.0087342 
9531 1 -6.75322 1.35166 0.171702 1 0.000728811 
8808 1 -4.67694 0.316705 1.06232 1 0.00949411 
8809 1 -3.44742 2.47138 0.690902 1 0.107618 
9386 1 -1.47649 1.38036 1.64052 5 4.07785 
9387 1 0.474507 1.83611 0.454764 5 7.72206 
10701 2 0.811633 0.46362 2.435 5 9.16589 
10702 2 2.69811 2.16006 0.163979 5 4.77221 
10704 2 3.85036 1.10895 2.06017 5 0.970716 
10709 2 5.14591 2.18005 0.23313 1 0.0664994 
10763 2 6.3476 1.108 2.09699 1 0.0111628 
10764 2 7.60838 2.16819 0.231354 1 0.00762712 
10766 2 8.83119 1.10658 2.10609 1 0.00157866 
10771 2 10.0827 2.1673 0.23249 1 0.00118245 
10899 2 11.3145 1.10732 2.10938 1 0.000280948 
10900 2 12.5632 2.16885 0.232936 1 0.000218034 
10902 2 13.7999 1.10876 2.10974 1 6.09817e-05 
10907 2 15.0473 2.17061 0.232621 1 5.02375e-05 
11121 2 16.287 1.11017 2.10903 1 1.6698e-05 
11122 2 17.5335 2.17205 0.231929 1 1.51306e-05 
11124 2 18.7749 1.11125 2.10807 1 5.72565e-06 
11129 2 20.0209 2.17306 0.231112 1 5.65906e-06 
11431 2 21.2633 1.11199 2.10712 1 2.3006e-06 
11432 2 22.5088 2.17368 0.230316 1 2.48826e-06 
19 4 -64.0144 4.51534 1.66564 1 1.09848e-15 
141 4 -61.9402 4.51534 0.289782 1 1.59393e-15 
172 4 -61.9402 3.45402 2.54118 1 3.9996e-16 
174 4 -59.866 3.45402 1.16533 1 3.99964e-16 
514 1 -56.5474 4.51534 1.66563 1 4.86478e-09 
1038 1 -54.4732 3.45406 2.54117 1 2.73948e-09 
1041 1 -54.4732 4.51535 0.289763 1 1.03009e-08 
1042 1 -52.399 3.45407 1.16529 1 1.03835e-08 
1621 1 -49.0804 4.51546 1.66553 1 4.49034e-09 
2199 1 -47.0063 4.5155 0.289585 1 3.71228e-09 
2257 1 -47.0063 3.45419 2.54099 1 1.76869e-09 
2259 1 -44.9322 3.45422 1.16502 1 7.10796e-09 
2838 1 -41.6135 4.51558 1.66519 1 6.14266e-09 
3414 1 -39.5394 3.45428 2.54062 1 3.3279e-09 
3417 1 -39.5394 4.51561 0.289246 1 3.23197e-09 
3418 1 -37.4652 3.45431 1.16467 1 3.85652e-09 
3997 1 -34.1466 4.51568 1.66477 1 6.28762e-09 
4575 1 -32.0724 4.51571 0.28881 1 1.11318e-08 
4633 1 -32.0724 3.45442 2.54021 1 4.94096e-09 
4635 1 -29.9983 3.45446 1.16426 1 1.13623e-08 
5214 1 -26.6797 4.5159 1.66441 1 4.71562e-08 
5790 1 -24.6056 3.45469 2.53985 1 1.01325e-07 
5793 1 -24.6057 4.51587 0.28828 1 7.36838e-08 
5794 1 -22.5317 3.45462 1.16359 1 1.81931e-07 
6373 1 -19.2136 4.51603 1.66292 1 6.28229e-07 
6951 1 -17.1397 4.51565 0.285846 1 2.90211e-06 
7009 1 -17.14 3.45496 2.53743 1 1.90087e-06 
7011 1 -15.0659 3.45468 1.15993 1 1.02038e-05 
7590 1 -11.7471 4.51768 1.65848 1 7.72261e-05 
8166 1 -9.67416 3.45983 2.53411 1 0.000257409 
8169 1 -9.66649 4.52053 0.287014 1 0.00012379 
8170 1 -7.59123 3.46789 1.1692 1 0.000580927 
8749 1 -4.24812 4.56507 1.68249 1 0.0701588 
9327 1 -1.98555 4.61651 0.362307 5 2.71469 
9388 1 0.0342049 3.0824 2.54095 5 4.73454 
10703 2 2.48638 3.0652 2.47092 5 0.870256 
10705 2 1.13839 4.229 0.649836 5 4.28569 
10707 2 3.78287 4.27985 0.678394 1 0.179454 
10749 2 5.05776 3.20936 2.50564 1 0.0451323 
10765 2 7.56914 3.22562 2.48956 1 0.00300181 
10767 2 6.32482 4.28343 0.634636 1 0.0123241 
10769 2 8.82453 4.2884 0.614866 1 0.00124373 
10885 2 10.0636 3.23063 2.48515 1 0.000424484 
10901 2 12.5531 3.23223 2.48433 1 7.60508e-05 
10903 2 11.3143 4.29149 0.609406 1 0.000186007 
10905 2 13.8017 4.29328 0.60789 1 4.20588e-05 
11107 2 15.0415 3.23313 2.48394 1 1.80326e-05 
11123 2 17.53 3.23387 2.48337 1 6.02809e-06 
11125 2 16.2889 4.29451 0.607207 1 1.34474e-05 
11127 2 18.7765 4.29544 0.606576 1 5.6451e-06 
11417 2 20.0185 3.23449 2.48264 1 2.56896e-06 
11433 2 22.5072 3.23494 2.48187 1 1.24692e-06 
11435 2 21.2645 4.29609 0.605891 1 2.74303e-06 
5 4 -66.9183 7.6993 1.79072 5 30.976 
8 4 -64.8441 7.6993 0.41486 1 5.0001e-16 
18 4 -66.0886 5.57666 0.790093 5 18.5856 
140 4 -62.7699 6.63798 1.2904 1 1.09765e-15 
142 4 -60.6957 5.57666 2.16595 1 1.19996e-15 
463 4 -59.4512 7.6993 1.79072 1 4.99963e-16 
464 4 -58.6215 5.57666 0.790093 1 5.25395e-11 
465 4 -57.377 7.6993 0.41486 1 1.19073e-09 
979 1 -55.3029 6.63799 1.29041 1 5.22088e-09 
1039 1 -53.2287 5.57671 2.16594 1 3.56056e-09 
1557 1 -51.9842 7.69938 1.79069 1 2.16708e-09 
1560 1 -49.9101 7.69941 0.414767 1 3.06379e-09 
1620 1 -51.1546 5.57674 0.790036 1 1.38157e-09 
2198 1 -47.836 6.63813 1.29025 1 6.81822e-09 
2200 1 -45.7618 5.57685 2.16571 1 4.86582e-09 
2776 1 -44.5173 7.6995 1.79043 1 3.72601e-09 
2777 1 -43.6877 5.57688 0.78975 1 5.5598e-09 
2778 1 -42.4432 7.69954 0.414486 1 2.58462e-09 
3355 1 -40.369 6.63823 1.28991 1 1.04921e-09 
3415 1 -38.2949 5.57694 2.16533 1 2.28307e-09 
3933 1 -37.0504 7.69959 1.79005 1 4.27643e-09 
3996 1 -36.2207 5.57696 0.789357 1 3.0178e-09 
3936 1 -34.9762 7.69961 0.414053 1 4.32192e-09 
4574 1 -32.9021 6.63835 1.28947 1 1.19535e-08 
4576 1 -30.8279 5.57709 2.16493 1 7.78972e-09 
5152 1 -29.5835 7.69978 1.78965 1 1.17267e-08 
5153 1 -28.7538 5.57713 0.788957 1 2.19832e-08 
5154 1 -27.5094 7.6998 0.41364 1 2.47026e-08 
5731 1 -25.4353 6.63858 1.28905 1 6.7954e-08 
5791 1 -23.3612 5.57738 2.16443 1 1.63694e-07 
6309 1 -22.1169 7.7 1.78897 1 2.59465e-07 
6372 1 -21.2874 5.57724 0.787994 1 2.71907e-07 
6312 1 -20.043 7.69974 0.412358 1 3.38713e-07 
6950 1 -17.9693 6.63853 1.28706 1 1.05937e-06 
6952 1 -15.8958 5.57751 2.16132 1 3.86366e-06 
7528 1 -14.6512 7.69997 1.78537 1 1.1796e-05 
7529 1 -13.821 5.57738 0.784347 1 2.48907e-05 
7530 1 -12.5752 7.70011 0.40974 1 5.31456e-05 
8107 1 -10.4999 6.64117 1.28493 1 0.00014756 
8167 1 -8.42333 5.58517 2.16239 1 0.000356002 
8685 1 -7.16548 7.71204 1.78942 1 0.00174189 
8748 1 -6.33634 5.59551 0.802828 1 0.00291339 
8688 1 -5.0613 7.71334 0.429462 1 0.0145799 
9326 1 -2.96313 6.67417 1.32758 1 0.375644 
9328 1 -0.947087 5.46748 2.42695 5 8.00507 
10447 1 -0.608046 6.81566 0.393536 5 5.34089 
10706 2 2.41558 6.4265 1.05038 5 4.3726 
10753 2 5.03345 6.38241 1.0328 1 0.0639625 
10768 2 7.55634 6.39989 1.00178 1 0.00649842 
10889 2 10.0589 6.40907 0.99029 1 0.000832866 
10904 2 12.5527 6.41368 0.985502 1 0.000122867 
11111 2 15.0428 6.41608 0.983479 1 2.25418e-05 
11126 2 17.5315 6.41749 0.982389 1 6.48795e-06 
11421 2 20.0199 6.41837 0.981571 1 2.89338e-06 
11436 2 22.5083 6.41891 0.980821 1 1.5678e-06 
6 4 -65.6738 9.82194 1.41548 5 12.3904 
111 4 -63.5996 8.76062 2.29103 1 1.10088e-15 
1152 4 -63.5996 9.82194 0.0396267 1 7.98013e-16 
114 4 -61.5254 8.76062 0.915171 1 1.19725e-15 
421 4 -58.2067 9.82194 1.41548 1 1.80017e-09 
978 1 -56.1325 8.76064 2.29103 1 2.42291e-09 
980 1 -54.0584 8.76066 0.915171 1 9.63395e-09 
2317 1 -56.1325 9.82194 0.0396265 1 4.35258e-09 
1558 1 -50.7398 9.82204 1.41541 1 1.78208e-09 
2136 1 -48.6656 8.76077 2.29091 1 4.33772e-09 
2139 1 -46.5915 8.76078 0.91498 1 4.3292e-09 
3528 1 -48.6656 9.82206 0.0394943 1 2.75933e-09 
2717 1 -43.2728 9.82216 1.41515 1 3.90422e-09 
3354 1 -41.1987 8.76085 2.29059 1 2.79523e-09 
4693 1 -41.1987 9.82219 0.0392101 1 5.05543e-09 
3356 1 -39.1245 8.76088 0.914646 1 7.3739e-09 
3934 1 -35.8059 9.82223 1.41475 1 5.7024e-09 
4512 1 -33.7317 8.76097 2.29015 1 7.62826e-09 
5904 1 -33.7317 9.82225 0.0387553 1 1.22321e-08 
4515 1 -31.6576 8.76102 0.914187 1 7.51438e-09 
5093 1 -28.339 9.82246 1.41435 1 2.44384e-08 
5730 1 -26.2649 8.76124 2.2898 1 4.58173e-08 
7069 1 -26.2649 9.82244 0.0383083 1 3.9272e-08 
5732 1 -24.1908 8.7612 0.913686 1 1.11003e-07 
6310 1 -20.8725 9.82254 1.41346 1 3.57906e-07 
6888 1 -18.7987 8.76137 2.2884 1 6.42803e-07 
8280 1 -18.7986 9.82215 0.0366813 1 8.19414e-07 
6891 1 -16.7248 8.76091 0.911233 1 3.20251e-06 
7469 1 -13.406 9.82271 1.40929 1 3.29968e-05 
8106 1 -11.3312 8.76285 2.28276 1 0.000125027 
9444 1 -11.328 9.82363 0.0356482 1 8.38329e-05 
8108 1 -9.24864 8.76578 0.911706 1 0.000331497 
8686 1 -5.92614 9.84518 1.42198 1 0.00233899 
9264 1 -3.84842 8.80664 2.30014 1 0.0317796 
10433 1 -3.84309 9.85803 0.0771559 1 0.0468252 
9267 1 -1.67308 8.85548 0.949475 5 3.30041 
10698 2 1.00901 8.92703 1.08779 5 5.77058 
10736 2 2.65101 10.7042 1.6451 5 3.30995 
10756 2 3.77561 8.51574 1.36872 5 0.522222 
10757 2 5.1123 10.6529 1.70525 1 0.0353976 
10758 2 6.30728 8.51381 1.3684 1 0.0228408 
10872 2 7.58756 10.6514 1.73014 1 0.00366436 
10892 2 8.81124 8.52496 1.36738 1 0.00254705 
10893 2 10.0699 10.654 1.73632 1 0.000489682 
10894 2 11.3061 8.53197 1.36379 1 0.000346828 
11094 2 12.5557 10.6575 1.73652 1 0.000101397 
11114 2 13.7973 8.5363 1.36086 1 5.59524e-05 
11115 2 15.0431 10.6603 1.73509 1 2.81645e-05 
11116 2 16.2867 8.53885 1.3589 1 1.26786e-05 
11404 2 17.5311 10.6622 1.73363 1 9.4615e-06 
11424 2 18.7753 8.54034 1.35758 1 4.49569e-06 
11425 2 20.0194 10.6634 1.73244 1 3.75485e-06 
11426 2 21.2638 8.5412 1.35659 1 2.12348e-06 
11801 2 22.5078 10.6641 1.73145 1 1.64521e-06 
2 4 -66.5034 11.9446 2.4161 5 30.976 
90 4 -64.4292 11.9446 1.04025 1 8.99128e-16 
570 4 -66.5034 13.0059 0.164704 5 30.976 
112 4 -62.3551 10.8833 1.91579 1 5.99241e-16 
380 4 -61.1106 13.0059 1.54056 1 9.99243e-16 
420 4 -60.2809 10.8833 0.539938 1 9.95612e-16 
418 4 -59.0364 11.9446 2.4161 1 1.17425e-09 
920 1 -56.9622 11.9446 1.04023 1 2.87308e-09 
1686 4 -59.0364 13.0059 0.164704 1 7.96708e-10 
921 1 -54.888 10.8833 1.91578 1 2.19278e-09 
1497 1 -53.6435 13.0059 1.54053 1 2.43867e-09 
1498 1 -52.8139 10.8833 0.539898 1 4.75808e-09 
1499 1 -51.5694 11.9447 2.41606 1 3.19751e-09 
2899 1 -51.5694 13.006 0.164637 1 5.53508e-09 
2076 1 -49.4953 11.9447 1.04015 1 3.87966e-09 
2137 1 -47.4211 10.8834 1.91563 1 2.64966e-09 
2654 1 -46.1766 13.0061 1.54032 1 6.46099e-09 
2714 1 -44.1025 11.9448 2.41579 1 3.00731e-09 
2716 1 -45.347 10.8834 0.539689 1 2.13188e-09 
4062 1 -44.1025 13.0061 0.164386 1 5.54416e-09 
3295 1 -42.0283 11.9448 1.03985 1 3.78599e-09 
3296 1 -39.9542 10.8835 1.9153 1 4.33428e-09 
3873 1 -38.7097 13.0062 1.53999 1 2.79838e-09 
3874 1 -37.88 10.8835 0.539346 1 7.51015e-09 
3875 1 -36.6356 11.9449 2.41542 1 6.39864e-09 
5275 1 -36.6356 13.0062 0.164023 1 6.18773e-09 
4452 1 -34.5614 11.9449 1.03944 1 5.86109e-09 
4513 1 -32.4873 10.8836 1.91485 1 4.34993e-09 
5030 1 -31.2428 13.0063 1.53956 1 6.57319e-09 
5090 1 -29.1686 11.9451 2.41502 1 1.21021e-08 
5092 1 -30.4131 10.8837 0.538899 1 1.06538e-08 
6438 1 -29.1686 13.0063 0.163588 1 2.36135e-08 
5671 1 -27.0945 11.9451 1.03904 1 4.24813e-08 
5672 1 -25.0204 10.8839 1.91448 1 8.20862e-08 
6249 1 -23.776 13.0065 1.53909 1 1.26912e-07 
6250 1 -22.9464 10.8838 0.538261 1 1.65247e-07 
6251 1 -21.702 11.9453 2.41443 1 3.79521e-07 
7651 1 -21.7021 13.0063 0.162733 1 2.24847e-07 
6828 1 -19.6282 11.945 1.03776 1 4.53764e-07 
6889 1 -17.5544 10.8838 1.91242 1 1.21273e-06 
7406 1 -16.3103 13.0065 1.53614 1 3.79488e-06 
7468 1 -15.4803 10.8834 0.535302 1 9.21718e-06 
7466 1 -14.2367 11.9456 2.40984 1 1.70186e-05 
8814 1 -14.2356 13.0064 0.15938 1 1.77202e-05 
8047 1 -12.1606 11.9463 1.03345 1 5.45182e-05 
8048 1 -10.0852 10.8878 1.90784 1 0.000149766 
8625 1 -8.83923 13.0146 1.53544 1 0.000269726 
8626 1 -8.00253 10.8945 0.538985 1 0.000432154 
8627 1 -6.764 11.9637 2.41664 1 0.00161208 
9983 1 -6.75322 13.0262 0.171702 1 0.000728811 
9204 1 -4.67694 11.9912 1.06232 1 0.00949411 
9265 1 -2.63405 10.9424 1.96826 1 0.0910066 
9781 1 -1.47649 13.0549 1.64052 5 4.07785 
9841 1 -0.531529 10.9888 0.641431 5 3.14282 
10739 2 0.811633 12.1381 2.435 5 9.16589 
10742 2 3.85036 12.7835 2.06017 5 0.970716 
10875 2 6.3476 12.7825 2.09699 1 0.0111628 
10878 2 8.83119 12.7811 2.10609 1 0.00157866 
11097 2 11.3145 12.7818 2.10938 1 0.000280948 
11100 2 13.7999 12.7833 2.10974 1 6.09817e-05 
11407 2 16.287 12.7847 2.10903 1 1.6698e-05 
11410 2 18.7749 12.7858 2.10807 1 5.72565e-06 
11804 2 21.2633 12.7865 2.10712 1 2.3006e-06 
89 4 -65.2589 14.0672 2.04087 5 12.3904 
91 4 -63.1847 14.0672 0.665015 1 1.20357e-15 
379 4 -61.9402 15.1285 2.54118 1 5.9996e-16 
381 4 -59.866 15.1285 1.16533 1 5.99964e-16 
863 4 -57.7919 14.0672 2.04087 1 3.64106e-09 
866 1 -55.7177 14.0672 0.664992 1 5.85717e-09 
1434 1 -54.4732 15.1286 2.54117 1 2.7396e-09 
1438 1 -52.399 15.1286 1.16529 1 1.03835e-08 
2075 1 -50.3249 14.0673 2.0408 1 5.62044e-09 
2077 1 -48.2508 14.0673 0.664865 1 3.32583e-09 
2653 1 -47.0063 15.1287 2.54099 1 1.76871e-09 
2655 1 -44.9322 15.1287 1.16502 1 7.10797e-09 
3233 1 -42.858 14.0675 2.04048 1 1.75113e-09 
3236 1 -40.7838 14.0675 0.664545 1 1.13922e-09 
3810 1 -39.5394 15.1288 2.54062 1 3.32791e-09 
3814 1 -37.4652 15.1288 1.16467 1 3.85653e-09 
4451 1 -35.3911 14.0675 2.04009 1 3.12085e-09 
4453 1 -33.3169 14.0676 0.664125 1 4.67645e-09 
5029 1 -32.0724 15.1289 2.54021 1 4.94096e-09 
5031 1 -29.9983 15.129 1.16426 1 1.13623e-08 
5609 1 -27.9241 14.0678 2.03973 1 2.99044e-08 
5612 1 -25.85 14.0677 0.663681 1 5.17593e-08 
6186 1 -24.6056 15.1292 2.53985 1 1.01325e-07 
6190 1 -22.5317 15.1291 1.16359 1 1.81931e-07 
6827 1 -20.4577 14.0679 2.03876 1 4.77872e-07 
6829 1 -18.384 14.0676 0.66182 1 9.13201e-07 
7405 1 -17.14 15.1295 2.53743 1 1.90087e-06 
7407 1 -15.0659 15.1292 1.15993 1 1.02038e-05 
7985 1 -12.9923 14.0688 2.03355 1 3.55456e-05 
7988 1 -10.9144 14.0708 0.658714 1 0.000121918 
8562 1 -9.67416 15.1343 2.53411 1 0.000257409 
8566 1 -7.59123 15.1424 1.1692 1 0.000580927 
9203 1 -5.51065 14.0998 2.06045 1 0.0087342 
9205 1 -3.44742 14.1459 0.690902 1 0.107618 
9783 1 0.0342049 14.7569 2.54095 5 4.73454 
9782 1 0.474507 13.5106 0.454764 5 7.72206 
10741 2 2.48638 14.7397 2.47092 5 0.870256 
10743 2 1.13839 15.9035 0.649836 5 4.28569 
10740 2 2.69811 13.8346 0.163979 5 4.77221 
10745 2 3.78287 15.9544 0.678394 1 0.179454 
10760 2 5.14591 13.8546 0.23313 1 0.0664994 
10846 2 5.05776 14.8839 2.50564 1 0.0451323 
10876 2 7.60838 13.8427 0.231354 1 0.00762712 
10877 2 7.56914 14.9001 2.48956 1 0.00300181 
10879 2 6.32482 15.9579 0.634636 1 0.0123241 
10881 2 8.82453 15.9629 0.614866 1 0.00124373 
10896 2 10.0827 13.8418 0.23249 1 0.00118245 
11068 2 10.0636 14.9051 2.48515 1 0.000424484 
11098 2 12.5632 13.8434 0.232936 1 0.000218034 
11099 2 12.5531 14.9068 2.48433 1 7.60508e-05 
11101 2 11.3143 15.966 0.609406 1 0.000186007 
11103 2 13.8017 15.9678 0.60789 1 4.20588e-05 
11118 2 15.0473 13.8451 0.232621 1 5.02375e-05 
11378 2 15.0415 14.9076 2.48394 1 1.80326e-05 
11408 2 17.5335 13.8466 0.231929 1 1.51306e-05 
11409 2 17.53 14.9084 2.48337 1 6.02809e-06 
11411 2 16.2889 15.969 0.607207 1 1.34474e-05 
11413 2 18.7765 15.97 0.606576 1 5.6451e-06 
11428 2 20.0209 13.8476 0.231112 1 5.65906e-06 
11775 2 20.0185 14.909 2.48264 1 2.56896e-06 
11805 2 22.5088 13.8482 0.230316 1 2.48826e-06 
11806 2 22.5072 14.9095 2.48187 1 1.24692e-06 
11808 2 21.2645 15.9706 0.605891 1 2.74303e-06 
74 4 -66.0886 17.2512 0.790093 5 18.5856 
75 4 -64.0144 16.1899 1.66564 1 1.09848e-15 
347 4 -62.7699 18.3125 1.2904 1 8.97645e-16 
348 4 -61.9402 16.1899 0.289782 1 1.59393e-15 
349 4 -60.6957 17.2512 2.16595 1 1.19996e-15 
814 4 -58.6215 17.2512 0.790093 1 5.25523e-11 
864 1 -56.5474 16.1899 1.66563 1 4.86481e-09 
1375 1 -55.3029 18.3125 1.29041 1 5.22084e-09 
1437 1 -54.4732 16.1899 0.289763 1 1.03011e-08 
1435 1 -53.2287 17.2512 2.16594 1 3.56052e-09 
2016 1 -51.1546 17.2513 0.790036 1 1.38156e-09 
2017 1 -49.0804 16.19 1.66553 1 4.49032e-09 
2594 1 -47.836 18.3126 1.29025 1 6.81818e-09 
2595 1 -47.0063 16.19 0.289585 1 3.71228e-09 
2596 1 -45.7618 17.2514 2.16571 1 4.86579e-09 
3173 1 -43.6877 17.2514 0.78975 1 5.55981e-09 
3234 1 -41.6135 16.1901 1.66519 1 6.14262e-09 
3751 1 -40.369 18.3128 1.28991 1 1.04921e-09 
3813 1 -39.5394 16.1901 0.289246 1 3.23197e-09 
3811 1 -38.2949 17.2515 2.16533 1 2.28307e-09 
4392 1 -36.2207 17.2515 0.789357 1 3.01779e-09 
4393 1 -34.1466 16.1902 1.66477 1 6.2876e-09 
4970 1 -32.9021 18.3129 1.28947 1 1.19535e-08 
4971 1 -32.0724 16.1902 0.28881 1 1.11317e-08 
4972 1 -30.8279 17.2516 2.16493 1 7.78973e-09 
5549 1 -28.7538 17.2516 0.788957 1 2.19832e-08 
5610 1 -26.6797 16.1904 1.66441 1 4.71562e-08 
6127 1 -25.4353 18.3131 1.28905 1 6.7954e-08 
6187 1 -23.3612 17.2519 2.16443 1 1.63694e-07 
6189 1 -24.6057 16.1904 0.28828 1 7.36838e-08 
6768 1 -21.2874 17.2518 0.787994 1 2.71907e-07 
6769 1 -19.2136 16.1906 1.66292 1 6.28229e-07 
7346 1 -17.9693 18.3131 1.28706 1 1.05937e-06 
7347 1 -17.1397 16.1902 0.285846 1 2.90211e-06 
7348 1 -15.8958 17.252 2.16132 1 3.86366e-06 
7925 1 -13.821 17.2519 0.784347 1 2.48907e-05 
7986 1 -11.7471 16.1922 1.65848 1 7.72261e-05 
8503 1 -10.4999 18.3157 1.28493 1 0.00014756 
8563 1 -8.42333 17.2597 2.16239 1 0.000356002 
8565 1 -9.66649 16.195 0.287014 1 0.00012379 
9144 1 -6.33634 17.27 0.802828 1 0.00291339 
9145 1 -4.24812 16.2396 1.68249 1 0.0701588 
9721 1 -2.96313 18.3487 1.32758 1 0.375644 
9722 1 -1.98555 16.291 0.362307 5 2.71469 
9723 1 -0.947087 17.142 2.42695 5 8.00507 
10636 1 -0.608046 18.4902 0.393536 5 5.34089 
10744 2 2.41558 18.101 1.05038 5 4.3726 
10850 2 5.03345 18.0569 1.0328 1 0.0639625 
10880 2 7.55634 18.0744 1.00178 1 0.00649842 
11072 2 10.0589 18.0836 0.99029 1 0.000832866 
11102 2 12.5527 18.0882 0.985502 1 0.000122867 
11382 2 15.0428 18.0906 0.983479 1 2.25418e-05 
11412 2 17.5315 18.092 0.982389 1 6.48795e-06 
11779 2 20.0199 18.0929 0.981571 1 2.89338e-06 
11809 2 22.5083 18.0934 0.980821 1 1.5678e-06 
61 4 -66.9183 19.3738 1.79072 5 30.976 
62 4 -65.6738 21.4965 1.41548 5 12.3904 
64 4 -64.8441 19.3738 0.41486 1 8.0001e-16 
318 4 -63.5996 20.4351 2.29103 1 1.10008e-15 
1561 4 -63.5996 21.4965 0.0396267 1 3.00011e-16 
321 4 -61.5254 20.4351 0.915171 1 1.19645e-15 
813 4 -59.4512 19.3738 1.79072 1 7.99963e-16 
771 4 -58.2067 21.4965 1.41548 1 1.80083e-09 
815 4 -57.377 19.3738 0.41486 1 1.19125e-09 
1374 1 -56.1325 20.4352 2.29103 1 2.42283e-09 
1376 1 -54.0584 20.4352 0.915171 1 9.63397e-09 
2718 1 -56.1325 21.4965 0.0396265 1 4.35328e-09 
1953 1 -51.9842 19.3739 1.79069 1 2.16709e-09 
1954 1 -50.7398 21.4966 1.41541 1 1.78208e-09 
1956 1 -49.9101 19.3739 0.414767 1 3.06379e-09 
2532 1 -48.6656 20.4353 2.29091 1 4.33776e-09 
2535 1 -46.5915 20.4353 0.91498 1 4.32918e-09 
3937 1 -48.6656 21.4966 0.0394943 1 2.75934e-09 
3172 1 -44.5173 19.374 1.79043 1 3.72601e-09 
3114 1 -43.2728 21.4967 1.41515 1 3.90422e-09 
3174 1 -42.4432 19.3741 0.414486 1 2.58462e-09 
3750 1 -41.1987 20.4354 2.29059 1 2.79523e-09 
5094 1 -41.1987 21.4967 0.0392101 1 5.05546e-09 
3752 1 -39.1245 20.4354 0.914646 1 7.37389e-09 
4329 1 -37.0504 19.3741 1.79005 1 4.27645e-09 
4330 1 -35.8059 21.4967 1.41475 1 5.70239e-09 
4332 1 -34.9762 19.3741 0.414053 1 4.32193e-09 
4908 1 -33.7317 20.4355 2.29015 1 7.62824e-09 
6313 1 -33.7317 21.4968 0.0387553 1 1.22321e-08 
4911 1 -31.6576 20.4355 0.914187 1 7.51437e-09 
5490 1 -28.339 21.497 1.41435 1 2.44384e-08 
5548 1 -29.5835 19.3743 1.78965 1 1.17267e-08 
5550 1 -27.5094 19.3743 0.41364 1 2.47025e-08 
6126 1 -26.2649 20.4358 2.2898 1 4.58173e-08 
7470 1 -26.2649 21.497 0.0383083 1 3.9272e-08 
6128 1 -24.1908 20.4357 0.913686 1 1.11003e-07 
6705 1 -22.1169 19.3745 1.78897 1 2.59465e-07 
6706 1 -20.8725 21.4971 1.41346 1 3.57906e-07 
6708 1 -20.043 19.3743 0.412358 1 3.38713e-07 
7284 1 -18.7987 20.4359 2.2884 1 6.42803e-07 
8689 1 -18.7986 21.4967 0.0366813 1 8.19414e-07 
7287 1 -16.7248 20.4354 0.911233 1 3.20251e-06 
7866 1 -13.406 21.4972 1.40929 1 3.29968e-05 
7924 1 -14.6512 19.3745 1.78537 1 1.1796e-05 
7926 1 -12.5752 19.3746 0.40974 1 5.31456e-05 
8502 1 -11.3312 20.4374 2.28276 1 0.000125027 
9842 1 -11.328 21.4981 0.0356482 1 8.38329e-05 
8504 1 -9.24864 20.4403 0.911706 1 0.000331497 
9081 1 -7.16548 19.3866 1.78942 1 0.00174189 
9082 1 -5.92614 21.5197 1.42198 1 0.00233899 
9084 1 -5.0613 19.3879 0.429462 1 0.0145799 
9659 1 -3.84842 20.4812 2.30014 1 0.0317796 
10622 1 -3.84309 21.5325 0.0771559 1 0.0468252 
9662 1 -1.67308 20.53 0.949475 5 3.30041 
10721 2 1.00901 20.6016 1.08779 5 5.77058 
10853 2 3.77561 20.1903 1.36872 5 0.522222 
10855 2 6.30728 20.1883 1.3684 1 0.0228408 
11075 2 8.81124 20.1995 1.36738 1 0.00254705 
11077 2 11.3061 20.2065 1.36379 1 0.000346828 
11385 2 13.7973 20.2108 1.36086 1 5.59524e-05 
11387 2 16.2867 20.2134 1.3589 1 1.26786e-05 
11782 2 18.7753 20.2149 1.35758 1 4.49569e-06 
11784 2 21.2638 20.2157 1.35659 1 2.12348e-06 
58 4 -66.5034 23.6191 2.4161 5 30.976 
297 4 -64.4292 23.6191 1.04025 1 8.99927e-16 
319 4 -62.3551 22.5578 1.91579 1 1.09924e-15 
770 4 -60.2809 22.5578 0.539938 1 1.49561e-15 
768 4 -59.0364 23.6191 2.4161 1 1.17349e-09 
1318 1 -56.9622 23.6191 1.04023 1 2.87321e-09 
1319 1 -54.888 22.5578 1.91578 1 2.19279e-09 
1899 1 -52.8139 22.5578 0.539898 1 4.75811e-09 
1900 1 -51.5694 23.6192 2.41606 1 3.19752e-09 
2481 1 -49.4953 23.6192 1.04015 1 3.87966e-09 
2533 1 -47.4211 22.5579 1.91563 1 2.64967e-09 
3111 1 -44.1025 23.6193 2.41579 1 3.00731e-09 
3113 1 -45.347 22.558 0.539689 1 2.13187e-09 
3694 1 -42.0283 23.6193 1.03985 1 3.78598e-09 
3695 1 -39.9542 22.558 1.9153 1 4.33428e-09 
4275 1 -37.88 22.558 0.539346 1 7.51014e-09 
4276 1 -36.6356 23.6194 2.41542 1 6.39866e-09 
4857 1 -34.5614 23.6194 1.03944 1 5.86107e-09 
4909 1 -32.4873 22.5582 1.91485 1 4.34994e-09 
5487 1 -29.1686 23.6196 2.41502 1 1.21021e-08 
5489 1 -30.4131 22.5582 0.538899 1 1.06538e-08 
6070 1 -27.0945 23.6196 1.03904 1 4.24812e-08 
6071 1 -25.0204 22.5584 1.91448 1 8.20862e-08 
6651 1 -22.9464 22.5583 0.538261 1 1.65247e-07 
6652 1 -21.702 23.6198 2.41443 1 3.79521e-07 
7233 1 -19.6282 23.6196 1.03776 1 4.53764e-07 
7285 1 -17.5544 22.5583 1.91242 1 1.21273e-06 
7865 1 -15.4803 22.5579 0.535302 1 9.21718e-06 
7863 1 -14.2367 23.6201 2.40984 1 1.70186e-05 
8446 1 -12.1606 23.6209 1.03345 1 5.45182e-05 
8447 1 -10.0852 22.5623 1.90784 1 0.000149766 
9027 1 -8.00253 22.569 0.538985 1 0.000432154 
9028 1 -6.764 23.6382 2.41664 1 0.00161208 
9608 1 -4.67694 23.6657 1.06232 1 0.00949411 
9660 1 -2.63405 22.6169 1.96826 1 0.0910066 
10182 1 -0.531529 22.6634 0.641431 5 3.14282 
10821 2 0.811633 23.8127 2.435 5 9.16589 
10818 2 2.65101 22.3787 1.6451 5 3.30995 
10854 2 5.1123 22.3274 1.70525 1 0.0353976 
11040 2 7.58756 22.3259 1.73014 1 0.00366436 
11076 2 10.0699 22.3286 1.73632 1 0.000489682 
11350 2 12.5557 22.332 1.73652 1 0.000101397 
11386 2 15.0431 22.3349 1.73509 1 2.81645e-05 
11747 2 17.5311 22.3368 1.73363 1 9.4615e-06 
11783 2 20.0194 22.3379 1.73244 1 3.75485e-06 
12234 2 22.5078 22.3386 1.73145 1 1.64521e-06 
296 4 -65.2589 25.7417 2.04087 5 12.3904 
922 4 -66.5034 24.6804 0.164704 5 30.976 
298 4 -63.1847 25.7417 0.665015 1 1.20357e-15 
729 4 -61.9402 26.8031 2.54118 1 8.9996e-16 
730 4 -61.1106 24.6804 1.54056 1 6.99243e-16 
731 4 -59.866 26.8031 1.16533 1 8.99965e-16 
1271 4 -57.7919 25.7417 2.04087 1 3.64164e-09 
2082 4 -59.0364 24.6804 0.164704 1 7.96743e-10 
1274 1 -55.7177 25.7417 0.664992 1 5.85734e-09 
1854 1 -54.4732 26.8031 2.54117 1 2.73961e-09 
1858 1 -52.399 26.8031 1.16529 1 1.03835e-08 
1898 1 -53.6435 24.6805 1.54053 1 2.43873e-09 
3297 1 -51.5694 24.6805 0.164637 1 5.53503e-09 
2480 1 -50.3249 25.7418 2.0408 1 5.62045e-09 
2482 1 -48.2508 25.7419 0.664865 1 3.32586e-09 
3062 1 -47.0063 26.8032 2.54099 1 1.76872e-09 
3063 1 -46.1766 24.6806 1.54032 1 6.46101e-09 
3064 1 -44.9322 26.8033 1.16502 1 7.10796e-09 
4458 1 -44.1025 24.6806 0.164386 1 5.54415e-09 
3647 1 -42.858 25.742 2.04048 1 1.75113e-09 
3650 1 -40.7838 25.742 0.664545 1 1.13921e-09 
4230 1 -39.5394 26.8033 2.54062 1 3.32792e-09 
4274 1 -38.7097 24.6807 1.53999 1 2.79838e-09 
4234 1 -37.4652 26.8033 1.16467 1 3.85653e-09 
5673 1 -36.6356 24.6807 0.164023 1 6.18772e-09 
4856 1 -35.3911 25.742 2.04009 1 3.12085e-09 
4858 1 -33.3169 25.7421 0.664125 1 4.67644e-09 
5438 1 -32.0724 26.8035 2.54021 1 4.94096e-09 
5439 1 -31.2428 24.6808 1.53956 1 6.5732e-09 
5440 1 -29.9983 26.8035 1.16426 1 1.13623e-08 
6834 1 -29.1686 24.6809 0.163588 1 2.36135e-08 
6023 1 -27.9241 25.7423 2.03973 1 2.99043e-08 
6026 1 -25.85 25.7423 0.663681 1 5.17594e-08 
6606 1 -24.6056 26.8037 2.53985 1 1.01325e-07 
6650 1 -23.776 24.681 1.53909 1 1.26912e-07 
6610 1 -22.5317 26.8037 1.16359 1 1.81931e-07 
8049 1 -21.7021 24.6808 0.162733 1 2.24847e-07 
7232 1 -20.4577 25.7425 2.03876 1 4.77872e-07 
7234 1 -18.384 25.7421 0.66182 1 9.13201e-07 
7814 1 -17.14 26.804 2.53743 1 1.90087e-06 
7815 1 -16.3103 24.681 1.53614 1 3.79488e-06 
7816 1 -15.0659 26.8037 1.15993 1 1.02038e-05 
8399 1 -12.9923 25.7433 2.03355 1 3.55456e-05 
9210 1 -14.2356 24.6809 0.15938 1 1.77202e-05 
8402 1 -10.9144 25.7453 0.658714 1 0.000121918 
8982 1 -9.67416 26.8089 2.53411 1 0.000257409 
9026 1 -8.83923 24.6891 1.53544 1 0.000269726 
8986 1 -7.59123 26.8169 1.1692 1 0.000580927 
9607 1 -5.51065 25.7744 2.06045 1 0.0087342 
10323 1 -6.75322 24.7007 0.171702 1 0.000728811 
9609 1 -3.44742 25.8204 0.690902 1 0.107618 
10134 1 -1.47649 24.7294 1.64052 5 4.07785 
10136 1 0.0342049 26.4314 2.54095 5 4.73454 
10135 1 0.474507 25.1851 0.454764 5 7.72206 
10823 2 2.48638 26.4142 2.47092 5 0.870256 
10822 2 2.69811 25.5091 0.163979 5 4.77221 
10824 2 3.85036 24.458 2.06017 5 0.970716 
10857 2 5.14591 25.5291 0.23313 1 0.0664994 
11003 2 5.05776 26.5584 2.50564 1 0.0451323 
11043 2 6.3476 24.457 2.09699 1 0.0111628 
11044 2 7.60838 25.5172 0.231354 1 0.00762712 
11045 2 7.56914 26.5747 2.48956 1 0.00300181 
11046 2 8.83119 24.4556 2.10609 1 0.00157866 
11079 2 10.0827 25.5163 0.23249 1 0.00118245 
11313 2 10.0636 26.5797 2.48515 1 0.000424484 
11353 2 11.3145 24.4564 2.10938 1 0.000280948 
11354 2 12.5632 25.5179 0.232936 1 0.000218034 
11355 2 12.5531 26.5813 2.48433 1 7.60508e-05 
11356 2 13.7999 24.4578 2.10974 1 6.09817e-05 
11389 2 15.0473 25.5197 0.232621 1 5.02375e-05 
11710 2 15.0415 26.5822 2.48394 1 1.80326e-05 
11750 2 16.287 24.4592 2.10903 1 1.6698e-05 
11751 2 17.5335 25.5211 0.231929 1 1.51306e-05 
11752 2 17.53 26.5829 2.48337 1 6.02809e-06 
11753 2 18.7749 24.4603 2.10807 1 5.72565e-06 
11786 2 20.0209 25.5221 0.231112 1 5.65906e-06 
12197 2 20.0185 26.5835 2.48264 1 2.56896e-06 
12237 2 21.2633 24.461 2.10712 1 2.3006e-06 
12238 2 22.5088 25.5227 0.230316 1 2.48826e-06 
12239 2 22.5072 26.584 2.48187 1 1.24692e-06 
281 4 -66.0886 28.9257 0.790093 5 18.5856 
282 4 -64.0144 27.8644 1.66564 1 1.09848e-15 
699 4 -61.9402 27.8644 0.289782 1 1.59393e-15 
700 4 -60.6957 28.9257 2.16595 1 6.99961e-16 
1240 4 -58.6215 28.9257 0.790093 1 5.25507e-11 
1272 1 -56.5474 27.8644 1.66563 1 4.8652e-09 
1857 1 -54.4732 27.8644 0.289763 1 1.03011e-08 
1855 1 -53.2287 28.9257 2.16594 1 3.5605e-09 
2443 1 -51.1546 28.9258 0.790036 1 1.38157e-09 
2444 1 -49.0804 27.8645 1.66553 1 4.49034e-09 
3029 1 -47.0063 27.8645 0.289585 1 3.71228e-09 
3030 1 -45.7618 28.9259 2.16571 1 4.86583e-09 
3616 1 -43.6877 28.9259 0.78975 1 5.55981e-09 
3648 1 -41.6135 27.8646 1.66519 1 6.14264e-09 
4233 1 -39.5394 27.8647 0.289246 1 3.23197e-09 
4231 1 -38.2949 28.926 2.16533 1 2.28307e-09 
4819 1 -36.2207 28.926 0.789357 1 3.0178e-09 
4820 1 -34.1466 27.8647 1.66477 1 6.2876e-09 
5405 1 -32.0724 27.8647 0.28881 1 1.11318e-08 
5406 1 -30.8279 28.9261 2.16493 1 7.7897e-09 
5992 1 -28.7538 28.9262 0.788957 1 2.19831e-08 
6024 1 -26.6797 27.8649 1.66441 1 4.71562e-08 
6607 1 -23.3612 28.9264 2.16443 1 1.63694e-07 
6609 1 -24.6057 27.8649 0.28828 1 7.36838e-08 
7195 1 -21.2874 28.9263 0.787994 1 2.71907e-07 
7196 1 -19.2136 27.8651 1.66292 1 6.28229e-07 
7781 1 -17.1397 27.8647 0.285846 1 2.90211e-06 
7782 1 -15.8958 28.9265 2.16132 1 3.86366e-06 
8368 1 -13.821 28.9264 0.784347 1 2.48907e-05 
8400 1 -11.7471 27.8667 1.65848 1 7.72261e-05 
8983 1 -8.42333 28.9342 2.16239 1 0.000356002 
8985 1 -9.66649 27.8696 0.287014 1 0.00012379 
9570 1 -6.33634 28.9445 0.802828 1 0.00291339 
9571 1 -4.24812 27.9141 1.68249 1 0.0701588 
10100 1 -1.98555 27.9656 0.362307 5 2.71469 
10101 1 -0.947087 28.8165 2.42695 5 8.00507 
10825 2 1.13839 27.578 0.649836 5 4.28569 
10827 2 3.78287 27.6289 0.678394 1 0.179454 
11047 2 6.32482 27.6325 0.634636 1 0.0123241 