ITEM: TIMESTEP
0
ITEM: NUMBER OF ATOMS
25140
ITEM: BOX BOUNDS ss pp pp
-78.8424 118.389
0 33.3937
0 41.6492
ITEM: ATOMS id type x y z c_cna c_csd 
3 4 -78.5288 1.76942 1.33741 5 24.7808 
119 4 -76.4904 0.470773 0.742426 1 7.99975e-16 
118 4 -75.0793 2.14046 1.9324 1 9.99263e-16 
452 4 -71.6299 2.5115 2.52739 1 8.99939e-16 
455 4 -73.041 0.841814 1.33741 1 1.20289e-15 
456 4 -71.1595 1.95494 0.147437 1 1.20125e-15 
907 4 -69.5915 1.21285 1.9324 1 1.16216e-08 
908 1 -67.71 2.32599 0.74241 1 1.35613e-09 
1364 1 -66.142 1.58392 2.52735 1 1.12306e-09 
1365 1 -65.6716 1.02736 0.147399 1 1.92369e-09 
1367 1 -64.1036 0.285291 1.93232 1 9.27834e-10 
1822 1 -62.2221 1.39844 0.742299 1 1.05311e-09 
1824 1 -60.6541 0.656373 2.52723 1 1.4255e-09 
1826 1 -60.1837 0.0998201 0.147264 1 1.01738e-09 
2278 1 -58.7725 1.76952 1.33721 1 2.22112e-09 
2283 1 -56.7342 0.470921 0.742189 1 3.18054e-09 
2735 1 -55.323 2.14064 1.93215 1 2.08995e-09 
2741 1 -53.2846 0.842039 1.33712 1 8.53603e-10 
3191 1 -51.8735 2.51174 2.52707 1 1.05255e-09 
3199 1 -51.4031 1.95519 0.147108 1 1.19504e-09 
3198 1 -49.8351 1.21313 1.93204 1 4.35182e-09 
3656 1 -46.3856 1.58422 2.52701 1 1.44996e-09 
3657 1 -47.9535 2.32628 0.742051 1 2.38268e-09 
3658 1 -45.9152 1.02767 0.147055 1 1.43446e-09 
4113 1 -44.3472 0.285624 1.93203 1 2.17339e-09 
4117 1 -42.4657 1.39881 0.742046 1 1.64814e-09 
4569 1 -40.8977 0.65679 2.52702 1 2.01243e-09 
4573 1 -39.0162 1.76999 1.33706 1 1.43697e-09 
4574 1 -40.4274 0.100242 0.147069 1 6.83495e-10 
5032 1 -36.9779 0.471429 0.742091 1 1.06779e-09 
5031 1 -35.5667 2.14118 1.93208 1 2.38287e-09 
5490 1 -33.5284 0.842617 1.3371 1 1.25915e-09 
5487 1 -32.1172 2.51236 2.52709 1 3.53185e-09 
5491 1 -31.6469 1.95581 0.147136 1 2.76641e-09 
5947 1 -30.0789 1.21379 1.9321 1 1.38705e-09 
5948 1 -28.1974 2.32699 0.742121 1 1.51781e-09 
6404 1 -26.6295 1.58498 2.52709 1 1.93645e-09 
6405 1 -26.1591 1.02845 0.147129 1 1.08464e-09 
6407 1 -24.5911 0.286441 1.93209 1 1.03295e-09 
6862 1 -22.7096 1.39965 0.742111 1 2.4148e-09 
6864 1 -21.1416 0.657646 2.52707 1 1.65507e-08 
6866 1 -20.6713 0.101129 0.147133 1 8.61329e-09 
7318 1 -19.2601 1.77086 1.33707 1 1.04519e-07 
7323 1 -17.2217 0.47229 0.74206 1 4.44036e-07 
7775 1 -15.8108 2.14212 1.9321 1 2.31241e-07 
7781 1 -13.7725 0.843508 1.33713 1 1.32456e-06 
8231 1 -12.3622 2.51373 2.52747 1 1.81285e-05 
8239 1 -11.8914 1.95673 0.147358 1 7.8425e-06 
8238 1 -10.3243 1.21605 1.93296 1 7.52122e-05 
8697 1 -8.44463 2.32994 0.74386 1 0.000404183 
8696 1 -6.87394 1.58332 2.52755 1 0.00064667 
8698 1 -6.41214 1.03297 0.15197 1 0.00280856 
9153 1 -4.8317 0.28091 1.9439 1 0.00875983 
9157 1 -2.92127 1.40829 0.775781 1 0.131858 
9605 1 -1.22659 0.60471 2.54613 5 3.32632 
9607 1 -1.00355 0.0554735 0.0642255 5 7.59309 
10058 2 0.446434 1.65543 1.11804 5 8.65489 
10241 2 2.73819 1.00555 1.64528 1 0.314568 
10293 2 5.05296 0.470375 2.26827 1 0.025656 
10588 2 5.78671 2.53973 1.08498 1 0.0287597 
10644 2 6.75499 0.309653 0.493597 1 0.00541253 
10642 2 8.15738 1.97641 1.68528 1 0.00220996 
11084 2 10.5148 1.41779 2.28016 1 0.000185685 
11088 2 12.242 1.232 0.49595 1 3.01745e-05 
11617 2 14.5935 0.675312 1.09067 1 3.29019e-06 
11615 2 16.0045 2.34497 2.28056 1 7.43712e-07 
11618 2 16.9453 0.118719 1.68564 1 4.03217e-07 
12092 2 17.7291 2.15939 0.495601 1 1.90149e-07 
2 4 -78.6856 4.18118 0.742426 5 30.976 
115 4 -77.1176 3.4391 2.52739 5 12.3904 
116 4 -76.6472 2.88254 0.147437 1 6.02048e-16 
117 4 -75.2361 4.55222 1.33741 1 1.20048e-15 
450 4 -73.1978 3.25358 0.742426 1 6.99166e-16 
451 4 -71.7866 4.92326 1.9324 1 1.00006e-15 
901 4 -69.7483 3.62462 1.33741 1 1.06429e-08 
905 1 -67.8668 4.73775 0.14741 1 2.45609e-09 
1357 1 -66.2988 3.99569 1.93237 1 3.46699e-09 
1362 1 -64.4172 5.10883 0.742354 1 1.28692e-09 
1366 1 -64.2604 2.69706 1.33734 1 1.08331e-09 
1813 1 -62.8492 4.36675 2.52727 1 3.11254e-09 
1825 1 -62.3788 3.8102 0.147314 1 1.13886e-09 
1823 1 -60.8109 3.06814 1.93224 1 1.54784e-09 
2281 1 -58.9293 4.18129 0.742222 1 3.65273e-09 
2279 1 -57.3613 3.43925 2.52716 1 1.51769e-09 
2282 1 -56.8909 2.88268 0.1472 1 3.04713e-09 
2738 1 -55.4798 4.55242 1.33716 1 3.05447e-09 
2740 1 -53.4414 3.25381 0.742143 1 2.9223e-09 
3194 1 -52.0303 4.92351 1.9321 1 3.91073e-09 
3196 1 -49.9919 3.62489 1.33708 1 1.24493e-09 
3652 1 -48.1103 4.73804 0.147073 1 1.35075e-09 
3654 1 -46.5424 3.99598 1.93203 1 1.31675e-09 
4107 1 -44.6608 5.10914 0.742045 1 2.02233e-09 
4115 1 -44.504 2.69738 1.33703 1 2.54469e-09 
4109 1 -43.0929 4.3671 2.52702 1 1.89113e-09 
4116 1 -42.6225 3.81057 0.147061 1 1.10824e-09 
4571 1 -41.0545 3.06854 1.93203 1 1.09619e-09 
4572 1 -39.173 4.18173 0.742056 1 3.42142e-09 
5028 1 -37.605 3.43972 2.52705 1 3.89383e-10 
5029 1 -37.1347 2.88319 0.147094 1 1.23629e-09 
5030 1 -35.7235 4.55292 1.33708 1 1.02397e-09 
5485 1 -33.6852 3.25437 0.742114 1 3.27152e-09 
5486 1 -32.274 4.92412 1.93209 1 1.61716e-09 
5941 1 -30.2357 3.62556 1.33711 1 1.80208e-09 
5945 1 -28.3542 4.73875 0.147136 1 1.68488e-09 
6397 1 -26.7862 3.99674 1.9321 1 1.18209e-09 
6402 1 -24.9047 5.10995 0.742118 1 8.9489e-10 
6406 1 -24.7479 2.69819 1.33711 1 1.0527e-09 
6853 1 -23.3368 4.36794 2.52708 1 5.33031e-09 
6863 1 -21.2984 3.06939 1.93207 1 3.01627e-08 
6865 1 -22.8664 3.81141 0.147127 1 2.07603e-09 
7321 1 -19.4169 4.18262 0.742095 1 8.17813e-08 
7319 1 -17.849 3.44067 2.52709 1 5.31154e-08 
7322 1 -17.3785 2.88406 0.14707 1 4.33107e-07 
7778 1 -15.9677 4.55396 1.33715 1 3.72172e-07 
7780 1 -13.9295 3.2554 0.742216 1 1.28474e-06 
8234 1 -12.5186 4.92548 1.93252 1 1.55739e-05 
8236 1 -10.4811 3.62731 1.33842 1 8.96648e-05 
8692 1 -8.60024 4.73946 0.148644 1 0.000202056 
8694 1 -7.02296 3.99651 1.92966 1 0.000977925 
9147 1 -5.13539 5.10774 0.73043 1 0.0119605 
9149 1 -3.60502 4.35341 2.50582 1 0.130981 
9155 1 -4.98763 2.68694 1.33386 1 0.00946799 
9156 1 -3.06683 3.79562 0.162199 1 0.0829045 
9606 1 -1.36315 3.071 2.01644 5 2.33773 
10202 2 0.492025 4.00328 0.549746 5 3.74649 
10240 2 1.80418 3.28551 2.36704 5 2.72401 
10242 2 3.34581 3.11849 0.475706 5 1.12416 
10587 2 4.84135 4.76182 1.67527 1 0.0307547 
10590 2 7.21202 4.20062 2.27629 1 0.00273612 
11031 2 8.9485 4.01638 0.496387 1 0.000522361 
11085 2 11.3008 3.4585 1.09049 1 5.46222e-05 
11559 2 12.7125 5.12766 2.28078 1 1.7081e-05 
11560 2 13.6526 2.9016 1.68548 1 6.0235e-06 
11561 2 14.4369 4.94194 0.49552 1 2.93541e-06 
12036 2 16.7885 4.38556 1.09061 1 3.36028e-07 
12090 2 19.1403 3.82907 1.68568 1 4.00232e-08 
1 4 -78.8423 6.59294 0.147437 5 37.1712 
104 4 -77.2744 5.85086 1.9324 5 12.3904 
109 4 -75.3929 6.96398 0.742426 1 1.09917e-15 
437 4 -73.825 6.2219 2.52739 1 8.99938e-16 
442 4 -71.9434 7.33502 1.33741 1 1.10048e-15 
453 4 -73.3546 5.66534 0.147437 1 8.02048e-16 
904 4 -69.9051 6.03638 0.742426 1 9.74814e-09 
893 1 -68.494 7.70607 1.93239 1 2.06976e-09 
902 1 -68.3372 5.2943 2.52738 1 3.16712e-09 
1360 1 -66.4556 6.40744 1.33738 1 2.20305e-09 
1361 1 -64.574 7.52058 0.147371 1 1.88711e-09 
1816 1 -63.006 6.77852 1.9323 1 1.63353e-09 
1818 1 -60.9677 5.4799 1.33725 1 4.59885e-09 
2271 1 -59.5565 7.14962 2.52721 1 2.04096e-09 
2272 1 -59.0861 6.59306 0.147239 1 1.31496e-09 
2274 1 -57.5181 5.85102 1.93219 1 2.91248e-09 
2726 1 -55.6366 6.96418 0.742166 1 1.36943e-09 
2728 1 -54.0686 6.22213 2.52711 1 3.78778e-09 
2739 1 -53.5982 5.66557 0.147146 1 1.62027e-09 
3181 1 -52.187 7.33527 1.33709 1 3.71481e-09 
3195 1 -50.1487 6.03665 0.742086 1 1.05593e-09 
3651 1 -48.5807 5.29459 2.52703 1 1.88749e-09 
3653 1 -46.6992 6.40774 1.33704 1 1.65079e-09 
4110 1 -44.8176 7.52089 0.147063 1 2.68658e-09 
4108 1 -43.2497 6.77885 1.93203 1 3.58237e-09 
4562 1 -41.2113 5.48029 1.33704 1 2.25716e-09 
4563 1 -39.8002 7.15003 2.52703 1 3.17388e-09 
4566 1 -39.3298 6.59349 0.147073 1 7.29482e-10 
5017 1 -37.7618 5.85147 1.93205 1 2.1519e-09 
5022 1 -35.8803 6.96468 0.742094 1 7.98583e-10 
5472 1 -34.3124 6.22267 2.52707 1 1.28005e-09 
5488 1 -33.842 5.66613 0.147114 1 7.34205e-10 
5477 1 -32.4308 7.33588 1.3371 1 2.65066e-09 
5942 1 -28.8246 5.29529 2.52708 1 7.00645e-10 
5944 1 -30.3925 6.03731 0.742118 1 4.79786e-10 
6400 1 -26.943 6.40849 1.33711 1 1.5493e-09 
6401 1 -25.0615 7.5217 0.147124 1 3.28167e-09 
6856 1 -23.4936 6.77971 1.93209 1 4.2601e-09 
6858 1 -21.4552 5.48115 1.3371 1 2.16361e-08 
7311 1 -20.0442 7.15095 2.5271 1 2.75697e-08 
7312 1 -19.5737 6.59438 0.147114 1 5.04386e-08 
7314 1 -18.0059 5.85244 1.93213 1 1.02657e-07 
7766 1 -16.1245 6.96573 0.74221 1 7.58646e-07 
7768 1 -14.5565 6.22387 2.52725 1 2.80322e-06 
7779 1 -14.0864 5.66732 0.147324 1 3.09376e-06 
8221 1 -12.6748 7.33711 1.33729 1 5.34296e-06 
8235 1 -10.6368 6.03878 0.743065 1 3.4404e-05 
8691 1 -9.06491 5.29539 2.52691 1 0.000191312 
8693 1 -7.18366 6.40797 1.33281 1 0.000888905 
9148 1 -3.71599 6.78074 1.91131 1 0.0784099 
9150 1 -5.29766 7.50846 0.136642 1 0.0136553 
9600 1 -1.70468 5.40414 1.43195 5 1.76752 
10199 2 1.70567 7.62849 1.6564 5 5.51363 
10201 2 0.130578 6.32377 0.456811 5 8.11541 
10203 2 2.45004 5.35473 1.13986 5 1.13505 
10530 2 3.9269 7.01267 2.31098 1 0.140593 
10534 2 5.66542 6.79171 0.501641 1 0.00905115 
11030 2 8.01308 6.24033 1.09198 1 0.000846345 
11032 2 10.362 5.68426 1.68614 1 0.000131004 
11507 2 13.4963 7.16816 1.09053 1 3.23973e-06 
12035 2 15.8479 6.61178 1.68559 1 5.04915e-07 
12038 2 18.1996 6.0553 2.28064 1 9.59078e-08 
107 4 -77.4312 8.26263 1.33741 5 18.5856 
89 4 -76.0201 9.93231 2.52739 1 8.0235e-16 
108 4 -75.5497 9.37575 0.147437 1 8.02058e-16 
440 4 -73.9818 8.63367 1.9324 1 1.09926e-15 
441 4 -72.1002 9.74679 0.742426 1 1.10158e-15 
890 4 -70.5323 9.00471 2.52739 1 3.46606e-09 
891 4 -70.0619 8.44815 0.147437 1 8.78462e-09 
892 1 -68.6507 10.1178 1.33741 1 2.48317e-09 
1344 1 -66.6124 8.81921 0.742394 1 1.3706e-09 
1346 1 -65.0444 8.07714 2.52733 1 8.00274e-10 
1799 1 -63.1628 9.19028 1.33731 1 8.54518e-10 
1817 1 -61.1245 7.89166 0.742277 1 1.36938e-09 
2252 1 -59.7133 9.56138 1.93221 1 1.83707e-09 
2273 1 -57.6749 8.26278 1.33719 1 1.30185e-09 
2705 1 -56.2638 9.93249 2.52714 1 2.61637e-09 
2727 1 -54.2254 8.6339 1.93212 1 4.20896e-09 
2729 1 -55.7934 9.37595 0.147186 1 4.72739e-09 
3184 1 -52.3438 9.74704 0.742113 1 8.01747e-10 
3182 1 -50.7759 9.00497 2.52704 1 5.17053e-09 
3185 1 -50.3055 8.44841 0.147084 1 3.99872e-09 
3636 1 -48.7375 7.70635 1.93205 1 1.44497e-09 
3639 1 -48.8943 10.1181 1.33705 1 4.20988e-09 
3641 1 -46.856 8.8195 0.742056 1 1.1595e-09 
4090 1 -45.288 8.07744 2.52702 1 2.02816e-09 
4095 1 -43.4065 9.19061 1.33705 1 3.83129e-09 
4565 1 -41.3681 7.89205 0.742057 1 6.19727e-10 
4550 1 -39.957 9.56178 1.93205 1 2.98943e-09 
5002 1 -36.5075 9.93298 2.52706 1 9.50451e-10 
5020 1 -37.9186 8.26323 1.33707 1 7.96588e-10 
5021 1 -36.0371 9.37644 0.147113 1 1.57893e-09 
5475 1 -34.4692 8.63442 1.93209 1 2.73033e-09 
5476 1 -32.5876 9.74763 0.742126 1 3.73513e-09 
5930 1 -31.0197 9.00561 2.52709 1 1.66676e-09 
5931 1 -30.5493 8.44907 0.147132 1 1.05674e-09 
5932 1 -29.1382 10.1188 1.3371 1 8.41393e-10 
5933 1 -28.9814 7.70705 1.9321 1 1.04572e-09 
6384 1 -27.0998 8.82025 0.742121 1 1.75766e-09 
6386 1 -25.5319 8.07825 2.52708 1 9.31254e-10 
6839 1 -23.6504 9.19146 1.33711 1 2.83564e-09 
6857 1 -21.612 7.89292 0.742105 1 1.36836e-08 
7292 1 -20.2009 9.56271 1.93211 1 3.99934e-08 
7313 1 -18.1627 8.2642 1.33715 1 1.72503e-07 
7745 1 -16.7514 9.93393 2.52711 1 1.32385e-07 
7769 1 -16.2813 9.37751 0.147238 1 8.69393e-07 
7767 1 -14.7131 8.63545 1.93219 1 9.42632e-07 
8222 1 -11.2624 9.00631 2.52624 1 4.04921e-05 
8224 1 -12.8315 9.74866 0.742038 1 3.56245e-06 
8225 1 -10.7929 8.45066 0.147166 1 2.07461e-05 
8676 1 -9.22261 7.70776 1.93099 1 0.000155629 
8679 1 -9.37821 10.119 1.33579 1 0.00025379 
8681 1 -7.33588 8.81987 0.74111 1 0.00132028 
9130 1 -5.77475 8.07783 2.52755 1 0.00449005 
9135 1 -3.929 9.17315 1.31931 1 0.0952005 
9602 1 -1.72119 7.99314 0.710573 5 4.02319 
10183 2 0.473342 9.78299 2.34224 5 8.68887 
10481 2 2.44848 9.56493 0.516191 1 0.321997 
10531 2 4.73206 9.00898 1.10856 1 0.0313131 
10973 2 7.07474 8.46477 1.6903 1 0.00240303 
11028 2 9.42228 7.90988 2.28237 1 0.000309454 
11450 2 10.2038 9.95058 1.08917 1 8.06008e-05 
11505 2 11.145 7.72433 0.495508 1 2.41071e-05 
11503 2 12.5554 9.39449 1.68512 1 9.56908e-06 
11978 2 14.9071 8.83805 2.28041 1 1.28111e-06 
11982 2 16.6315 8.65265 0.495524 1 9.05546e-07 
12513 2 18.9834 8.09608 1.09065 1 1.27898e-07 
87 4 -77.588 10.6744 0.742426 5 18.5856 
88 4 -76.1769 12.3441 1.9324 1 8.00063e-16 
419 4 -74.1385 11.0454 1.33741 1 1.10369e-15 
420 4 -72.7274 12.7151 2.52739 1 6.99941e-16 
423 4 -72.257 12.1586 0.147437 1 1.00205e-15 
867 4 -70.6891 11.4165 1.9324 1 3.52267e-09 
872 1 -68.8075 12.5296 0.742414 1 5.94186e-09 
1319 1 -67.2396 11.7875 2.52738 1 4.09592e-09 
1347 1 -66.7692 11.231 0.147409 1 3.84176e-09 
1345 1 -65.2012 10.4889 1.93236 1 2.83302e-09 
1800 1 -61.7517 10.86 2.52726 1 1.07866e-09 
1802 1 -63.3196 11.602 0.742326 1 2.1968e-09 
1803 1 -61.2813 10.3034 0.147277 1 3.61011e-09 
2255 1 -59.8701 11.9731 1.33722 1 5.73066e-09 
2257 1 -57.8317 10.6745 0.742196 1 5.38792e-09 
2708 1 -56.4206 12.3442 1.93216 1 3.92807e-09 
2710 1 -54.3822 11.0456 1.33715 1 5.07091e-09 
3162 1 -52.971 12.7154 2.5271 1 3.50902e-09 
3163 1 -52.5006 12.1588 0.147139 1 2.61472e-09 
3165 1 -50.9327 11.4167 1.93207 1 9.75229e-10 
3615 1 -49.0511 12.5299 0.742076 1 1.17781e-09 
3617 1 -47.4832 11.7878 2.52702 1 1.42996e-09 
3640 1 -47.0128 11.2313 0.147066 1 1.16867e-09 
4093 1 -45.4448 10.4892 1.93203 1 1.22212e-09 
4094 1 -43.5633 11.6024 0.742045 1 1.81922e-09 
4547 1 -41.9953 10.8603 2.52701 1 5.16008e-09 
4548 1 -41.5249 10.3038 0.147066 1 9.4084e-10 
4549 1 -40.1138 11.9735 1.33705 1 5.54236e-09 
5000 1 -38.0754 10.675 0.742086 1 2.22959e-09 
5001 1 -36.6643 12.3447 1.93206 1 6.11688e-10 
5454 1 -34.626 11.0462 1.3371 1 5.42209e-10 
5455 1 -33.2148 12.7159 2.52708 1 1.63469e-09 
5458 1 -32.7444 12.1594 0.147124 1 1.78606e-09 
5907 1 -31.1765 11.4174 1.9321 1 1.45744e-09 
5912 1 -29.2949 12.5306 0.742109 1 2.25189e-09 
6359 1 -27.727 11.7886 2.52708 1 1.06422e-09 
6387 1 -27.2566 11.232 0.147127 1 2.49961e-09 
6385 1 -25.6887 10.49 1.93209 1 2.3427e-09 
6842 1 -23.8072 11.6032 0.742114 1 3.04798e-09 
6840 1 -22.2392 10.8612 2.52709 1 1.25678e-08 
6843 1 -21.7689 10.3047 0.147122 1 3.82385e-09 
7295 1 -20.3577 11.9745 1.33712 1 3.8303e-08 
7297 1 -18.3195 10.676 0.742159 1 1.91685e-07 
7748 1 -16.9081 12.3457 1.93208 1 1.13227e-07 
7750 1 -14.8698 11.0472 1.33711 1 5.15583e-07 
8202 1 -13.4582 12.7166 2.52693 1 9.47871e-06 
8203 1 -12.9879 12.1603 0.147056 1 3.14797e-06 
8205 1 -11.4193 11.4175 1.93148 1 5.10278e-05 
8655 1 -9.53719 12.5299 0.740944 1 0.000266512 
8657 1 -7.97435 11.7904 2.52788 1 0.000435507 
8680 1 -7.49168 11.233 0.145474 1 0.00212396 
9133 1 -5.93587 10.4961 1.93606 1 0.00558353 
9134 1 -4.09594 11.6369 0.741138 1 0.0616339 
9587 1 -2.52761 10.8331 2.50403 5 1.3639 
9588 1 -2.17744 10.3356 0.120526 5 8.05563 
9589 1 -0.733571 11.8708 1.27244 5 8.86685 
10480 2 1.54251 11.6989 1.02814 5 5.36179 
10482 2 3.82445 11.2283 1.70012 1 0.147454 
10922 2 6.90524 12.7316 1.08579 1 0.00324932 
10972 2 6.14799 10.6918 2.28209 1 0.0113984 
10974 2 7.85192 10.5055 0.49112 1 0.0007379 
11449 2 9.26008 12.1765 1.68414 1 0.000359301 
11452 2 11.6133 11.6207 2.28017 1 4.49592e-05 
11927 2 13.3383 11.4354 0.495427 1 1.03153e-05 
11979 2 15.6906 10.8789 1.09053 1 1.93528e-06 
12456 2 17.1019 12.5485 2.28057 1 1.8505e-07 
12457 2 18.0426 10.3223 1.68561 1 3.5035e-07 
12458 2 18.8268 12.363 0.495721 1 1.97545e-07 
63 4 -78.2152 13.6427 2.52739 5 18.5856 
68 4 -76.3337 14.7558 1.33741 1 1.20048e-15 
90 4 -77.7448 13.0862 0.147437 5 18.5856 
422 4 -74.2953 13.4572 0.742426 1 9.99165e-16 
395 4 -72.8842 15.1269 1.9324 1 1.00006e-15 
870 4 -70.8459 13.8282 1.33741 1 1.90277e-09 
871 4 -68.9644 14.9414 0.147437 1 2.43889e-08 
1322 1 -67.3964 14.1993 1.93238 1 3.05562e-09 
1323 1 -65.5148 15.3124 0.742384 1 4.07176e-09 
1324 1 -65.358 12.9007 1.33737 1 3.10417e-09 
1776 1 -63.9468 14.5704 2.52732 1 1.80306e-09 
1777 1 -63.4764 14.0138 0.147351 1 3.54141e-09 
1779 1 -61.9085 13.2717 1.93227 1 3.80008e-09 
2227 1 -60.0269 14.3849 0.742254 1 2.8124e-09 
2229 1 -58.4589 13.6428 2.52718 1 2.87556e-09 
2256 1 -57.9885 13.0863 0.147225 1 3.36002e-09 
2679 1 -56.5774 14.756 1.33717 1 1.28295e-09 
2709 1 -54.539 13.4574 0.742153 1 2.40369e-09 
3131 1 -53.1278 15.1271 1.9321 1 2.05756e-09 
3164 1 -51.0895 13.8285 1.33709 1 1.4678e-09 
3618 1 -49.2079 14.9416 0.147085 1 5.96994e-10 
3616 1 -47.64 14.1996 1.93203 1 6.74146e-10 
4068 1 -45.6016 12.901 1.33703 1 1.35174e-09 
4069 1 -44.1904 14.5707 2.52701 1 4.85817e-09 
4071 1 -45.7584 15.3127 0.742048 1 2.19383e-09 
4072 1 -43.7201 14.0141 0.147061 1 3.05137e-09 
4520 1 -42.1521 13.2721 1.93203 1 3.3358e-09 
4525 1 -40.2706 14.3853 0.742058 1 6.61407e-10 
4971 1 -38.7026 13.6433 2.52703 1 2.11436e-09 
4976 1 -36.8211 14.7565 1.33707 1 1.39584e-09 
5003 1 -38.2322 13.0867 0.147083 1 1.37801e-09 
5430 1 -33.3716 15.1277 1.93208 1 9.20096e-10 
5457 1 -34.7827 13.4579 0.742095 1 1.9234e-09 
5910 1 -31.3333 13.8291 1.3371 1 2.15179e-09 
5911 1 -29.4517 14.9423 0.147136 1 3.26425e-09 
6362 1 -27.8838 14.2003 1.9321 1 1.81903e-09 
6363 1 -26.0023 15.3135 0.742118 1 1.46113e-09 
6364 1 -25.8455 12.9018 1.3371 1 2.19238e-09 
6816 1 -24.4343 14.5715 2.52708 1 2.97702e-09 
6817 1 -23.964 14.015 0.147129 1 4.14967e-09 
6819 1 -22.396 13.273 1.9321 1 9.08533e-09 
7267 1 -20.5145 14.3862 0.74214 1 3.48076e-08 
7269 1 -18.9465 13.6442 2.52708 1 3.14922e-08 
7296 1 -18.4763 13.0877 0.147169 1 1.74239e-07 
7719 1 -17.0649 14.7574 1.33707 1 2.68676e-07 
7749 1 -15.0264 13.4589 0.742084 1 9.4031e-07 
8171 1 -13.6152 15.1285 1.93204 1 5.50976e-06 
8204 1 -11.5766 13.8296 1.33684 1 3.63687e-05 
8656 1 -8.13529 14.2024 1.9337 1 0.000865701 
8658 1 -9.69642 14.943 0.146328 1 6.89997e-05 
9108 1 -6.09951 12.9151 1.34518 1 0.00667421 
9111 1 -6.25135 15.3162 0.748593 1 0.00224825 
9109 1 -4.66832 14.5785 2.54313 1 0.00970472 
9112 1 -4.21763 14.0248 0.145851 1 0.0152886 
9560 1 -2.65772 13.2871 1.92026 1 0.0518041 
9565 1 -0.742449 14.4092 0.754528 5 4.67165 
10444 2 0.671323 13.5132 2.38118 5 9.34461 
10478 2 2.94999 13.4511 2.24659 5 4.63558 
10920 2 4.54849 13.2919 0.472887 1 0.1088 
10918 2 5.96105 14.9526 1.68542 1 0.00780212 
11399 2 8.31858 14.4016 2.2792 1 0.000673806 
11403 2 10.0446 14.2181 0.495514 1 7.83565e-05 
11924 2 13.8097 15.3312 2.28043 1 6.13072e-06 
11926 2 12.3977 13.6615 1.09047 1 9.45919e-06 
11928 2 14.75 13.105 1.6855 1 1.28723e-06 
12408 2 15.5346 15.1458 0.495663 1 3.34288e-06 
12410 2 17.8861 14.5893 1.09068 1 5.16172e-07 
66 4 -78.372 16.0545 1.9324 5 18.5856 
67 4 -76.4904 17.1676 0.742426 1 1.29917e-15 
392 4 -74.9225 16.4255 2.52739 1 9.99939e-16 
393 4 -74.4521 15.869 0.147437 1 9.02048e-16 
394 4 -73.041 17.5386 1.33741 1 1.50048e-15 
838 4 -71.0027 16.24 0.742426 1 6.99165e-16 
839 4 -69.5915 17.9097 1.9324 1 1.16231e-08 
840 4 -69.4348 15.4979 2.52739 1 1.307e-08 
1289 1 -67.5532 16.6111 1.3374 1 1.09044e-09 
1293 1 -65.6716 17.7242 0.147399 1 1.92361e-09 
1741 1 -64.1036 16.9821 1.93232 1 9.27831e-10 
1778 1 -62.0653 15.6835 1.3373 1 2.56876e-09 
2190 1 -60.6541 17.3532 2.52723 1 1.42549e-09 
2228 1 -58.6157 16.0546 1.9322 1 2.39344e-09 
2230 1 -60.1837 16.7966 0.147264 1 1.01738e-09 
2682 1 -56.7342 17.1677 0.742189 1 3.18057e-09 
2680 1 -55.1662 16.4257 2.52713 1 2.32399e-09 
2683 1 -54.6958 15.8692 0.147164 1 9.2588e-10 
3134 1 -53.2846 17.5389 1.33712 1 8.53601e-10 
3136 1 -51.2463 16.2403 0.742088 1 2.52694e-09 
3582 1 -49.6783 15.4982 2.52704 1 7.83388e-10 
3585 1 -49.8351 17.91 1.93204 1 4.35182e-09 
3587 1 -47.7968 16.6113 1.33704 1 9.85151e-10 
4038 1 -45.9152 17.7245 0.147055 1 1.43447e-09 
4040 1 -44.3472 16.9824 1.93203 1 2.17339e-09 
4523 1 -42.3089 15.6839 1.33703 1 1.54657e-09 
4489 1 -40.8977 17.3536 2.52702 1 2.01244e-09 
4524 1 -40.4274 16.7971 0.147069 1 6.83487e-10 
4974 1 -38.8594 16.0551 1.93204 1 8.37677e-10 
4975 1 -36.9779 17.1683 0.742091 1 1.06779e-09 
5427 1 -35.4099 16.4262 2.52706 1 1.11681e-09 
5428 1 -34.9395 15.8697 0.147116 1 8.16164e-10 
5429 1 -33.5284 17.5394 1.3371 1 1.25914e-09 
5878 1 -31.4901 16.2409 0.742118 1 6.2786e-10 
5879 1 -30.0789 17.9106 1.9321 1 1.38704e-09 
5880 1 -29.9221 15.4989 2.52709 1 1.42182e-09 
6329 1 -28.0406 16.6121 1.33712 1 2.76818e-09 
6333 1 -26.1591 17.7253 0.147129 1 1.08465e-09 
6781 1 -24.5911 16.9833 1.93209 1 1.03295e-09 
6818 1 -22.5528 15.6847 1.33711 1 4.85505e-09 
7230 1 -21.1416 17.3545 2.52707 1 1.65507e-08 
7268 1 -19.1033 16.0559 1.93208 1 6.54393e-08 
7270 1 -20.6713 16.798 0.147133 1 8.6133e-09 
7720 1 -15.6538 16.4271 2.52704 1 8.04317e-07 
7722 1 -17.2217 17.1691 0.74206 1 4.44036e-07 
7723 1 -15.1831 15.8705 0.147048 1 1.94131e-06 
8174 1 -13.7725 17.5403 1.33713 1 1.32456e-06 
8176 1 -11.7341 16.2419 0.742071 1 9.50601e-06 
8622 1 -10.1688 15.5009 2.52824 1 9.54839e-05 
8625 1 -10.3243 17.9129 1.93296 1 7.52123e-05 
8627 1 -8.28927 16.6136 1.33795 1 0.000312143 
9078 1 -6.41214 17.7298 0.15197 1 0.00280854 
9080 1 -4.8317 16.9777 1.9439 1 0.00875984 
9529 1 -1.22659 17.3015 2.54613 5 3.32632 
9563 1 -2.80017 15.6943 1.36055 1 0.0564755 
9564 1 -1.00355 16.7523 0.0642255 5 7.59309 
10445 2 1.19415 16.0068 0.620804 5 3.34002 
10874 2 2.73819 17.7024 1.64528 1 0.314568 
10875 2 3.59237 15.4868 1.08614 1 0.127301 
10877 2 5.05296 17.1672 2.26827 1 0.025656 
11360 2 6.75499 17.0065 0.493597 1 0.00541253 
11400 2 9.10617 16.4448 1.09017 1 0.000439756 
11881 2 11.458 15.8877 1.68529 1 4.79973e-05 
11882 2 12.242 17.9288 0.49595 1 3.01745e-05 
12367 2 14.5935 17.3721 1.09067 1 3.29019e-06 
12406 2 16.9453 16.8155 1.68564 1 4.03217e-07 
12889 2 19.2971 16.259 2.28068 1 4.87495e-08 
43 4 -78.5288 18.4662 1.33741 5 24.7808 
44 4 -77.1176 20.1359 2.52739 5 12.3904 
47 4 -76.6472 19.5794 0.147437 1 1.00205e-15 
353 4 -75.0793 18.8373 1.9324 1 6.00061e-16 
358 4 -73.1978 19.9504 0.742426 1 1.29917e-15 
797 4 -71.6299 19.2083 2.52739 1 8.99939e-16 
802 4 -69.7483 20.3214 1.33741 1 1.06436e-08 
841 4 -71.1595 18.6518 0.147437 1 6.02048e-16 
1292 1 -67.71 19.0228 0.74241 1 1.35587e-09 
1290 1 -66.142 18.2807 2.52735 1 1.12306e-09 
1744 1 -64.2604 19.3939 1.33734 1 1.08331e-09 
1745 1 -62.3788 20.507 0.147314 1 1.13888e-09 
1746 1 -62.2221 18.0953 0.742299 1 1.05312e-09 
2193 1 -60.8109 19.765 1.93224 1 1.54783e-09 
2195 1 -58.7725 18.4663 1.33721 1 2.22112e-09 
2644 1 -57.3613 20.1361 2.52716 1 1.5177e-09 
2645 1 -56.8909 19.5795 0.1472 1 3.04714e-09 
2647 1 -55.323 18.8375 1.93215 1 2.08995e-09 
3094 1 -53.4414 19.9506 0.742143 1 2.92228e-09 
3096 1 -51.8735 19.2086 2.52707 1 1.05256e-09 
3135 1 -51.4031 18.652 0.147108 1 1.19504e-09 
3544 1 -49.9919 20.3217 1.33708 1 1.24493e-09 
3586 1 -47.9535 19.0231 0.742051 1 2.38268e-09 
4037 1 -46.3856 18.281 2.52701 1 1.44996e-09 
4039 1 -44.504 19.3942 1.33703 1 2.5447e-09 
4487 1 -42.4657 18.0956 0.742046 1 1.64815e-09 
4488 1 -41.0545 19.7654 1.93203 1 1.09619e-09 
4490 1 -42.6225 20.5074 0.147061 1 1.10824e-09 
4937 1 -39.0162 18.4668 1.33706 1 1.43698e-09 
4938 1 -37.605 20.1365 2.52705 1 3.89387e-10 
4941 1 -37.1347 19.58 0.147094 1 1.23628e-09 
5388 1 -35.5667 18.838 1.93208 1 2.38287e-09 
5393 1 -33.6852 19.9512 0.742114 1 3.27151e-09 
5837 1 -32.1172 19.2092 2.52709 1 3.53183e-09 
5881 1 -31.6469 18.6526 0.147136 1 2.76639e-09 
5842 1 -30.2357 20.3224 1.33711 1 1.8021e-09 
6330 1 -26.6295 18.2818 2.52709 1 1.93646e-09 
6332 1 -28.1974 19.0238 0.742121 1 1.51782e-09 
6784 1 -24.7479 19.395 1.33711 1 1.0527e-09 
6785 1 -22.8664 20.5082 0.147127 1 2.07602e-09 
6786 1 -22.7096 18.0965 0.742111 1 2.41482e-09 
7233 1 -21.2984 19.7662 1.93207 1 3.01627e-08 
7235 1 -19.2601 18.4677 1.33707 1 1.04519e-07 
7684 1 -17.849 20.1375 2.52709 1 5.31156e-08 
7685 1 -17.3785 19.5809 0.14707 1 4.33107e-07 
7687 1 -15.8108 18.8389 1.9321 1 2.3124e-07 
8134 1 -13.9295 19.9522 0.742216 1 1.28474e-06 
8136 1 -12.3622 19.2106 2.52747 1 1.81285e-05 
8175 1 -11.8914 18.6536 0.147358 1 7.8425e-06 
8584 1 -10.4811 20.3241 1.33842 1 8.96646e-05 
8626 1 -8.44463 19.0268 0.74386 1 0.000404185 
9077 1 -6.87394 18.2801 2.52755 1 0.000646668 
9079 1 -4.98763 19.3838 1.33386 1 0.00946797 
9530 1 -3.06683 20.4924 0.162199 1 0.0829045 
9527 1 -2.92127 18.1051 0.775781 1 0.131858 
9528 1 -1.36315 19.7678 2.01644 5 2.33773 
10432 2 0.446434 18.3523 1.11804 5 8.65489 
10836 2 1.80417 19.9823 2.36704 5 2.72401 
10840 2 3.34581 19.8153 0.475706 5 1.12416 
11359 2 5.78671 19.2366 1.08498 1 0.0287597 
11361 2 8.15738 18.6732 1.68528 1 0.00220996 
11846 2 11.3008 20.1553 1.09049 1 5.46221e-05 
11880 2 10.5148 18.1146 2.28016 1 0.000185685 
12366 2 13.6526 19.5984 1.68548 1 6.0235e-06 
12369 2 16.0045 19.0418 2.28056 1 7.43712e-07 
12854 2 17.7291 18.8562 0.495601 1 1.90149e-07 
12855 2 19.1403 20.5259 1.68568 1 4.00232e-08 
30 4 -77.2744 22.5477 1.9324 5 12.3904 
46 4 -78.6856 20.878 0.742426 5 30.976 
310 4 -73.825 22.9187 2.52739 1 1.49994e-15 
356 4 -75.2361 21.249 1.33741 1 8.00482e-16 
357 4 -73.3546 22.3622 0.147437 1 8.02048e-16 
800 4 -71.7866 21.6201 1.9324 1 4.00061e-16 
801 4 -69.9051 22.7332 0.742426 1 9.74738e-09 
1250 1 -68.3372 21.9911 2.52738 1 3.16722e-09 
1251 1 -67.8668 21.4346 0.14741 1 2.45593e-09 
1252 1 -66.4556 23.1043 1.33738 1 2.20316e-09 
1253 1 -66.2988 20.6925 1.93237 1 3.46681e-09 
1700 1 -64.4172 21.8057 0.742354 1 1.28691e-09 
1702 1 -62.8492 21.0636 2.52727 1 3.11257e-09 
2148 1 -60.9677 22.1767 1.33725 1 4.5989e-09 
2194 1 -58.9293 20.8781 0.742222 1 3.65272e-09 
2597 1 -57.5181 22.5478 1.93219 1 2.91248e-09 
2646 1 -55.4798 21.2492 1.33716 1 3.05448e-09 
3045 1 -54.0686 22.919 2.52711 1 3.78778e-09 
3097 1 -53.5982 22.3624 0.147146 1 1.62027e-09 
3095 1 -52.0303 21.6203 1.9321 1 3.91072e-09 
3545 1 -48.5807 21.9914 2.52703 1 1.88749e-09 
3547 1 -50.1487 22.7335 0.742086 1 1.05594e-09 
3548 1 -48.1103 21.4349 0.147073 1 1.35075e-09 
3994 1 -46.5424 20.6928 1.93203 1 1.31675e-09 
3997 1 -46.6992 23.1046 1.33704 1 1.65078e-09 
3999 1 -44.6608 21.806 0.742045 1 2.02233e-09 
4442 1 -43.0929 21.0639 2.52702 1 1.89111e-09 
4447 1 -41.2113 22.1771 1.33704 1 2.25717e-09 
4940 1 -39.173 20.8786 0.742056 1 3.42142e-09 
4897 1 -37.7618 22.5483 1.93205 1 2.1519e-09 
5345 1 -34.3124 22.9195 2.52707 1 1.28005e-09 
5391 1 -35.7235 21.2497 1.33708 1 1.02396e-09 
5392 1 -33.842 22.363 0.147114 1 7.34198e-10 
5840 1 -32.274 21.6209 1.93209 1 1.61716e-09 
5841 1 -30.3925 22.7341 0.742118 1 4.79778e-10 
6290 1 -28.8246 21.9921 2.52708 1 7.00639e-10 
6291 1 -28.3542 21.4356 0.147136 1 1.68487e-09 
6292 1 -26.943 23.1053 1.33711 1 1.54931e-09 
6293 1 -26.7862 20.6936 1.9321 1 1.18208e-09 
6740 1 -24.9047 21.8068 0.742118 1 8.94893e-10 
6742 1 -23.3368 21.0648 2.52708 1 5.33031e-09 
7188 1 -21.4552 22.178 1.3371 1 2.16361e-08 
7234 1 -19.4169 20.8794 0.742095 1 8.17813e-08 
7637 1 -18.0059 22.5493 1.93213 1 1.02657e-07 
7686 1 -15.9677 21.2508 1.33715 1 3.72172e-07 
8085 1 -14.5565 22.9207 2.52725 1 2.80322e-06 
8137 1 -14.0864 22.3641 0.147324 1 3.09375e-06 
8135 1 -12.5186 21.6223 1.93252 1 1.55739e-05 
8587 1 -10.6368 22.7356 0.743065 1 3.44041e-05 
8585 1 -9.06491 21.9922 2.52691 1 0.000191313 
8588 1 -8.60024 21.4363 0.148644 1 0.000202055 
9034 1 -7.02296 20.6933 1.92966 1 0.000977924 
9037 1 -7.18366 23.1048 1.33281 1 0.000888904 
9039 1 -5.13539 21.8046 0.73043 1 0.0119605 
9482 1 -3.60502 21.0502 2.50582 1 0.130981 
9487 1 -1.70468 22.101 1.43195 5 1.76752 
10814 2 0.130578 23.0206 0.45681 5 8.11541 
10839 2 0.492025 20.7001 0.549746 5 3.74649 
10837 2 2.45004 22.0516 1.13986 5 1.13505 
11326 2 4.84135 21.4586 1.67527 1 0.0307547 
11357 2 7.21202 20.8974 2.27629 1 0.00273612 
11815 2 8.01308 22.9372 1.09198 1 0.00084634 
11844 2 8.9485 20.7132 0.496387 1 0.000522362 
11842 2 10.362 22.3811 1.68614 1 0.000131004 
12332 2 12.7125 21.8245 2.28078 1 1.7081e-05 
12336 2 14.4369 21.6388 0.49552 1 2.93542e-06 
12853 2 16.7885 21.0824 1.09061 1 3.36028e-07 
12851 2 18.1996 22.7521 2.28064 1 9.59078e-08 
28 4 -78.8423 23.2898 0.147437 5 37.1712 
29 4 -77.4312 24.9595 1.33741 5 18.5856 
308 4 -75.3929 23.6608 0.742426 1 1.39917e-15 
309 4 -73.9818 25.3305 1.9324 1 1.10006e-15 
751 4 -71.9434 24.0318 1.33741 1 8.00482e-16 
755 4 -70.0619 25.145 0.147437 1 8.78378e-09 
1199 1 -68.494 24.4029 1.93239 1 2.06952e-09 
1204 1 -66.6124 25.516 0.742394 1 1.37054e-09 
1647 1 -65.0444 24.774 2.52733 1 8.00325e-10 
1703 1 -64.574 24.2174 0.147371 1 1.88714e-09 
1701 1 -63.006 23.4753 1.9323 1 1.6336e-09 
2149 1 -59.5565 23.8464 2.52721 1 2.04097e-09 
2151 1 -61.1245 24.5885 0.742277 1 1.36938e-09 
2152 1 -59.0861 23.2899 0.147239 1 1.31496e-09 
2600 1 -57.6749 24.9596 1.33719 1 1.30184e-09 
2602 1 -55.6366 23.661 0.742166 1 1.36943e-09 
3048 1 -54.2254 25.3307 1.93212 1 4.20896e-09 
3050 1 -52.187 24.0321 1.33709 1 3.7148e-09 
3498 1 -50.3055 25.1452 0.147084 1 3.99872e-09 
3500 1 -48.7375 24.4032 1.93205 1 1.44497e-09 
3945 1 -46.856 25.5163 0.742056 1 1.15951e-09 
3947 1 -45.288 24.7743 2.52702 1 2.02815e-09 
3998 1 -44.8176 24.2177 0.147063 1 2.68656e-09 
4445 1 -43.2497 23.4757 1.93203 1 3.58235e-09 
4446 1 -41.3681 24.5889 0.742057 1 6.19725e-10 
4894 1 -39.8002 23.8469 2.52703 1 3.17387e-09 
4895 1 -39.3298 23.2903 0.147073 1 7.29487e-10 
4896 1 -37.9186 24.9601 1.33707 1 7.96598e-10 
5343 1 -35.8803 23.6615 0.742094 1 7.98582e-10 
5344 1 -34.4692 25.3312 1.93209 1 2.73034e-09 
5791 1 -32.4308 24.0327 1.3371 1 2.65068e-09 
5795 1 -30.5493 25.1459 0.147132 1 1.05674e-09 
6239 1 -28.9814 24.4039 1.9321 1 1.04572e-09 
6244 1 -27.0998 25.5171 0.742121 1 1.75766e-09 
6687 1 -25.5319 24.7751 2.52708 1 9.31251e-10 
6741 1 -23.4936 23.4765 1.93209 1 4.2601e-09 
6743 1 -25.0615 24.2185 0.147124 1 3.2817e-09 
7191 1 -21.612 24.5897 0.742105 1 1.36835e-08 
7189 1 -20.0442 23.8478 2.5271 1 2.75697e-08 
7192 1 -19.5737 23.2912 0.147114 1 5.04387e-08 
7640 1 -18.1627 24.961 1.33715 1 1.72503e-07 
7642 1 -16.1245 23.6626 0.74221 1 7.58646e-07 
8088 1 -14.7131 25.3323 1.93219 1 9.42634e-07 