ITEM: TIMESTEP
0
ITEM: NUMBER OF ATOMS
38580
ITEM: BOX BOUNDS ss pp pp
-66.9561 115.33
0 45.8952
0 50.2757
ITEM: ATOMS id type x y z c_cna c_csd 
6 4 -65.3493 1.69784 0.61539 5 12.3904 
1260 4 -65.028 0.213 2.58698 5 6.1952 
57 4 -64.064 2.50776 2.58698 1 2.9992e-16 
86 4 -63.1 0.752944 1.10829 1 7.96606e-16 
286 4 -59.8867 2.1028 1.60119 1 1.09948e-15 
288 4 -57.6374 1.1579 2.09409 1 1.83062e-08 
2757 4 -58.9227 0.347986 0.122491 1 2.49974e-09 
651 1 -55.7094 1.69779 0.615421 1 2.61384e-09 
653 1 -54.4241 2.50765 2.58705 1 2.3292e-09 
3584 1 -55.388 0.212927 2.58702 1 3.45052e-09 
697 1 -53.46 0.752812 1.10836 1 3.96575e-09 
1236 1 -50.2468 2.10255 1.60133 1 3.37499e-09 
4392 1 -49.2828 0.347705 0.12264 1 5.54255e-09 
1918 1 -47.9975 1.15753 2.09427 1 3.55947e-09 
1922 1 -46.0696 1.69744 0.615608 1 5.28166e-09 
2692 1 -44.7843 2.50727 2.58721 1 6.23977e-09 
5224 1 -45.7482 0.212492 2.5872 1 4.48939e-09 
2746 1 -43.8203 0.7524 1.10854 1 5.746e-09 
3545 1 -40.6071 2.10218 1.60145 1 2.60004e-08 
6837 1 -39.6431 0.347302 0.122761 1 1.85792e-08 
3547 1 -38.3578 1.15722 2.09432 1 3.24283e-08 
4337 1 -36.43 1.69722 0.615607 1 6.19262e-08 
4339 1 -35.1448 2.50721 2.58709 1 8.46671e-08 
4383 1 -34.1808 0.752308 1.10841 1 8.18128e-08 
7664 1 -36.1085 0.212288 2.58715 1 3.56031e-08 
5187 1 -30.9678 2.10241 1.60106 1 3.17125e-07 
8472 1 -30.0039 0.347493 0.122384 1 3.3479e-07 
5980 1 -28.7187 1.15761 2.09376 1 5.56659e-07 
5984 1 -26.7908 1.69774 0.614956 1 1.00998e-06 
9304 1 -26.4698 0.21284 2.58646 1 9.68064e-07 
6772 1 -25.5055 2.50777 2.58639 1 1.41052e-06 
6826 1 -24.5419 0.753052 1.10763 1 1.81408e-06 
7625 1 -21.3282 2.10314 1.60055 1 3.31151e-06 
7627 1 -19.0799 1.15852 2.09376 1 5.80879e-06 
10917 1 -20.3652 0.348756 0.121592 1 5.51239e-06 
8417 1 -17.1506 1.69839 0.615413 1 7.19267e-06 
11744 1 -16.8322 0.21399 2.58741 1 1.19447e-05 
8419 1 -15.8647 2.50716 2.58906 1 9.84153e-06 
8463 1 -14.9031 0.753935 1.10934 1 1.6426e-05 
9267 1 -11.6856 2.10103 1.60749 1 0.00011612 
10060 1 -9.43429 1.1569 2.09954 1 0.000255486 
12516 1 -10.728 0.34912 0.125311 1 0.000234948 
10064 1 -7.49918 1.69451 0.624097 1 0.00125534 
10852 1 -6.19519 2.4903 2.60399 1 0.0124399 
13197 1 -7.18978 0.205624 2.58919 1 0.00153302 
10906 1 -5.25347 0.731626 1.1212 1 0.0126694 
11705 1 -1.9473 1.94577 1.58165 5 1.17656 
11706 3 -0.0724791 2.31957 0.0415393 5 2.5847 
11707 3 0.875867 0.392217 1.44309 5 3.7997 
14724 2 4.13381 1.60696 1.02206 1 0.0177297 
15191 2 6.08667 2.13072 2.4952 1 0.00455252 
15192 2 6.38225 0.653679 0.522961 1 0.00261886 
15194 2 8.32406 1.19355 1.99995 1 0.000521846 
15812 2 9.61371 2.00684 0.0271427 1 7.73435e-05 
15822 2 10.5732 0.254509 1.50611 1 6.73574e-05 
15814 2 11.5443 2.54689 1.5042 1 3.58999e-05 
16581 2 13.7924 1.60407 1.01014 1 1.98903e-05 
16579 2 15.7214 2.1446 2.48772 1 1.43117e-05 
16582 2 16.0403 0.660362 0.516316 1 1.24308e-05 
17388 2 17.9693 1.20061 1.99446 1 9.56098e-06 
17392 2 19.2552 2.01078 0.022716 1 1.02703e-05 
17395 2 20.2175 0.256479 1.50137 1 6.03297e-06 
18211 2 23.4311 1.60717 1.00836 1 3.8025e-06 
1 4 -66.6346 4.9375 0.122491 5 30.976 
4 4 -66.3133 3.45266 2.09409 5 24.7808 
58 4 -63.1 4.80252 2.58698 1 6e-16 
60 4 -64.3853 3.9926 0.61539 1 7.00001e-16 
61 4 -62.136 3.0477 1.10829 1 8.99961e-16 
235 4 -58.9227 4.39756 1.60119 1 2.4157e-09 
287 4 -57.9587 2.64275 0.122491 1 9.7582e-09 
593 1 -56.9947 4.93748 0.122506 1 3.33131e-09 
650 1 -56.6734 3.45263 2.09411 1 4.03435e-09 
652 1 -54.7454 3.99253 0.615445 1 1.77681e-09 
1179 1 -53.4601 4.80239 2.58708 1 2.28601e-09 
1180 1 -52.4961 3.04755 1.10839 1 1.95418e-09 
1861 1 -49.2829 4.39729 1.60138 1 5.47525e-09 
1864 1 -47.3549 4.93721 0.122707 1 3.80834e-09 
1919 1 -47.0336 3.45229 2.0943 1 5.15566e-09 
1921 1 -48.3188 2.64246 0.122672 1 6.25968e-09 
2695 1 -45.1057 3.99222 0.615629 1 7.43625e-09 
2693 1 -43.8204 4.80206 2.58723 1 1.67432e-08 
2696 1 -42.8564 3.0472 1.10855 1 9.6038e-09 
3489 1 -39.6432 4.397 1.60145 1 5.46168e-08 
3546 1 -38.6793 2.64215 0.12276 1 4.87592e-08 
4279 1 -37.7153 4.93697 0.122752 1 9.93085e-08 
4336 1 -37.394 3.45208 2.09429 1 6.42411e-08 
4338 1 -35.4661 3.9921 0.615575 1 1.29043e-07 
5130 1 -34.1807 4.80207 2.58705 1 1.49565e-07 
5131 1 -33.2169 3.04725 1.10834 1 1.89346e-07 
5923 1 -30.0035 4.39725 1.601 1 4.16942e-07 
5983 1 -29.0399 2.64248 0.122291 1 5.74732e-07 
5926 1 -28.0752 4.9372 0.12227 1 4.87124e-07 
5981 1 -27.7544 3.45249 2.09368 1 7.74373e-07 
6773 1 -24.5403 4.80226 2.58653 1 9.12475e-07 
6775 1 -25.826 3.99248 0.614948 1 9.53492e-07 
6776 1 -23.577 3.04779 1.10767 1 1.84556e-06 
7569 1 -20.3619 4.39713 1.60106 1 1.85396e-06 
7626 1 -19.399 2.64299 0.122008 1 4.09751e-06 
8359 1 -18.4319 4.93641 0.122723 1 4.55153e-06 
8416 1 -18.1131 3.45217 2.09472 1 2.89665e-06 
8418 1 -16.1829 3.99115 0.616849 1 6.61573e-06 
9210 1 -14.8964 4.79929 2.59099 1 2.84733e-05 
9211 1 -13.9344 3.04581 1.11196 1 2.36182e-05 
10003 1 -10.7137 4.39101 1.61118 1 0.000364617 
10006 1 -8.78559 4.92841 0.135843 1 0.000938081 
10063 1 -9.7554 2.63916 0.13244 1 0.000545475 
10061 1 -8.45336 3.4464 2.1053 1 0.00221555 
10855 1 -6.51845 3.98632 0.629634 1 0.00797933 
10853 1 -5.2688 4.80041 2.61366 1 0.013958 
10856 1 -4.26892 3.01404 1.14937 1 0.0625201 
11649 1 -1.00561 4.20653 1.58919 5 1.5355 
14711 2 0.917219 4.50918 0.088433 5 2.72549 
14708 2 1.86253 2.5956 1.49364 5 1.20381 
14709 2 2.85891 4.86895 1.49997 5 0.844797 
15159 2 5.11641 3.90056 1.01234 1 0.00607666 
15161 2 7.05197 4.4307 2.48882 1 0.000814165 
15193 2 7.36315 2.94853 0.519206 1 0.000726147 
15811 2 9.29579 3.48814 1.99718 1 0.000137612 
15813 2 10.5856 4.30026 0.0253852 1 8.00652e-05 
16558 2 12.5126 4.84208 1.50244 1 4.07868e-05 
16559 2 14.76 3.89864 1.00919 1 2.55566e-05 
17346 2 16.6869 4.44011 2.48693 1 1.56601e-05 
17389 2 18.9347 3.49585 1.99406 1 1.00564e-05 
17391 2 17.0075 2.95481 0.515867 1 1.65094e-05 
18195 2 21.1828 2.55153 1.50119 1 6.26721e-06 
18198 2 20.2193 4.3065 0.0226369 1 7.27783e-06 
18196 2 22.1459 4.84742 1.50121 1 2.92208e-06 
32 4 -65.3493 5.74742 2.09409 5 12.3904 
35 4 -65.6706 7.23226 0.122491 5 6.1952 
36 4 -63.4213 6.28736 0.61539 1 9e-16 
186 4 -62.136 7.09728 2.58698 1 1.2e-15 
190 4 -60.208 7.63722 1.10829 1 8e-16 
234 4 -61.172 5.34246 1.10829 1 6.00001e-16 
592 4 -57.9587 6.69232 1.60119 1 9.86715e-09 
594 1 -56.0307 7.23223 0.122526 1 1.41285e-09 
595 1 -55.7094 5.74737 2.09413 1 1.23472e-09 
1122 1 -53.7814 6.28727 0.615474 1 2.57532e-09 
1124 1 -52.4961 7.09714 2.58709 1 2.76612e-09 
1181 1 -51.5321 5.34229 1.10843 1 3.99511e-09 
1803 1 -50.5682 7.63703 1.10845 1 2.65064e-09 
1862 1 -48.3189 6.69204 1.6014 1 6.14939e-09 
2634 1 -46.0697 5.74706 2.09433 1 1.05458e-08 
2637 1 -46.3909 7.23196 0.122732 1 8.84764e-09 
2638 1 -44.1417 6.28698 0.615648 1 1.77219e-08 
3427 1 -42.8564 7.09683 2.58725 1 3.20697e-08 
3488 1 -41.8925 5.34199 1.10856 1 2.98186e-08 
3431 1 -40.9284 7.63674 1.10857 1 4.5141e-08 
4278 1 -38.6792 6.69179 1.60144 1 7.77075e-08 
4280 1 -36.7512 7.23173 0.122748 1 8.03322e-08 
4281 1 -36.4299 5.74691 2.09427 1 9.82596e-08 
5073 1 -34.5019 6.28689 0.615559 1 1.30827e-07 
5075 1 -33.2163 7.0968 2.58705 1 1.20139e-07 
5132 1 -32.2527 5.34207 1.1083 1 2.27543e-07 
5865 1 -31.2881 7.63668 1.10832 1 1.28117e-07 
5924 1 -29.0387 6.69184 1.60102 1 2.54579e-07 
6714 1 -26.7894 5.74704 2.09374 1 5.06229e-07 
6717 1 -27.1101 7.23162 0.122324 1 3.21993e-07 
6718 1 -24.8605 6.2868 0.615067 1 6.723e-07 
7507 1 -23.5747 7.09636 2.58681 1 1.01182e-06 
7511 1 -21.6453 7.63586 1.10823 1 3.24891e-06 
7568 1 -22.6111 5.34199 1.10792 1 1.2393e-06 
8358 1 -19.3956 6.69066 1.6017 1 5.28063e-06 
8360 1 -17.4658 7.22957 0.1233 1 1.53639e-05 
8361 1 -17.1461 5.74514 2.09589 1 9.66369e-06 
9153 1 -15.2162 6.28344 0.618088 1 3.01438e-05 
9155 1 -13.9316 7.09199 2.59209 1 4.90228e-05 
9212 1 -12.9665 5.33677 1.1143 1 0.000102255 
9945 1 -12.0052 7.6293 1.11448 1 0.000108277 
10004 1 -9.75279 6.68436 1.60978 1 9.75346e-05 
10794 1 -7.49771 5.74453 2.10259 1 0.00250948 
10797 1 -7.82343 7.22107 0.131921 1 0.000764998 
10798 1 -5.55199 6.28916 0.623927 1 0.0194001 
11587 1 -4.31231 7.10802 2.62356 1 0.0402222 
11591 1 -2.40916 7.63332 1.18757 1 0.503681 
11648 1 -3.33943 5.31824 1.17824 1 0.1193 
12432 3 0.0511549 6.38854 1.63293 5 4.02381 
14657 2 1.95187 6.708 0.0494147 5 1.48658 
15100 2 3.84348 7.17547 1.48763 1 0.102573 
15160 2 6.09128 6.1957 1.00574 1 0.00235594 
15762 2 8.01891 6.73123 2.48356 1 0.000314455 
15763 2 8.33792 5.24414 0.516967 1 0.000279156 
15764 2 9.3067 7.54297 0.515042 1 0.000216963 
15765 2 10.2649 5.78533 1.99444 1 7.84481e-05 
16500 2 11.5527 6.59722 0.0239284 1 0.000107465 
16502 2 13.4762 7.13978 1.50138 1 3.89307e-05 
17349 2 15.7237 6.19534 1.00855 1 2.14005e-05 
17347 2 17.6492 6.73693 2.4867 1 8.24521e-06 
17350 2 17.9714 5.25093 0.515561 1 1.24345e-05 
18143 2 18.9324 7.54787 0.515499 1 3.95062e-06 
18140 2 19.8975 5.79215 1.99398 1 4.86423e-06 
18144 2 21.1812 6.60288 0.0226936 1 2.21078e-06 
18933 2 23.1077 7.14351 1.50139 1 1.06203e-06 
16 4 -66.6346 8.98708 1.60119 5 30.976 
19 4 -64.7067 9.52702 0.122491 1 1.98805e-16 
33 4 -64.3853 8.04218 2.09409 1 6.00002e-16 
189 4 -62.4573 8.58212 0.61539 1 4.01203e-16 
187 4 -61.172 9.39204 2.58698 1 5.00005e-16 
535 4 -59.244 9.93198 1.10829 1 5.6895e-10 
536 1 -56.9947 8.98706 1.6012 1 3.22902e-09 
1064 1 -55.0668 9.52697 0.122536 1 1.28381e-09 
1121 1 -54.7454 8.04211 2.09414 1 2.01125e-09 
1123 1 -52.8174 8.58202 0.61549 1 2.49806e-09 
1802 1 -51.5321 9.39188 2.5871 1 5.25069e-09 
1804 1 -49.6042 9.93177 1.10846 1 5.4433e-09 
2577 1 -47.3549 8.98679 1.60141 1 8.58143e-09 
2580 1 -45.4269 9.52668 0.122746 1 1.08445e-08 
2635 1 -45.1057 8.0418 2.09435 1 1.89614e-08 
3428 1 -41.8923 9.39154 2.58727 1 1.89425e-08 
3430 1 -43.1777 8.58171 0.615667 1 2.29484e-08 
4221 1 -39.9642 9.93142 1.10859 1 1.55067e-08 
4222 1 -37.7149 8.98649 1.60146 1 3.35512e-08 
5015 1 -35.7868 9.52637 0.122768 1 3.34644e-08 
5072 1 -35.4656 8.04163 2.09428 1 5.75238e-08 
5074 1 -33.5374 8.58153 0.615574 1 6.19814e-08 
5864 1 -32.2518 9.39135 2.58711 1 8.63876e-08 
5866 1 -30.3234 9.93112 1.10837 1 1.94306e-07 
6657 1 -28.0738 8.9862 1.60111 1 3.56925e-07 
6660 1 -26.145 9.52585 0.122392 1 9.51204e-07 
6715 1 -25.8242 8.04128 2.0939 1 6.42564e-07 
7508 1 -22.6096 9.39039 2.58711 1 2.69298e-06 
7510 1 -23.8951 8.58088 0.615212 1 1.82037e-06 
8301 1 -20.6807 9.9299 1.10842 1 5.85214e-06 
8302 1 -18.431 8.98444 1.60213 1 9.24619e-06 
9095 1 -16.5026 9.52347 0.12338 1 1.55389e-05 
9152 1 -16.1815 8.03847 2.09667 1 1.77173e-05 
9154 1 -14.2539 8.57674 0.618346 1 2.53152e-05 
9944 1 -12.9711 9.38648 2.59141 1 4.25765e-05 
9946 1 -11.047 9.92342 1.11258 1 0.000198012 
10737 1 -8.79299 8.97835 1.60393 1 0.000227672 
10740 1 -6.86313 9.51476 0.121019 1 0.00211717 
10795 1 -6.53861 8.0395 2.09472 1 0.00405152 
11590 1 -4.58731 8.59234 0.61092 1 0.0337648 
11588 1 -3.33901 9.43474 2.60602 1 0.138387 
12380 1 -1.50525 10.0427 1.09808 5 4.40087 
14601 2 0.655945 10.1591 0.29379 5 8.84499 
14655 2 1.46238 8.32431 1.82039 5 2.74325 
15101 2 4.81529 9.47002 1.48203 1 0.0213797 
15705 2 7.06139 8.49538 1.0022 1 0.000996283 
15707 2 8.98171 9.03237 2.48224 1 0.000222564 
16441 2 10.2647 9.84424 0.514222 1 0.000123566 
16499 2 11.2286 8.08477 1.9931 1 7.31317e-05 
16501 2 12.5122 8.89679 0.0229992 1 5.69416e-05 
17291 2 14.435 9.43847 1.50116 1 1.57103e-05 
17292 2 16.6837 8.49301 1.00835 1 7.47208e-06 
18082 2 18.6093 9.0339 2.48694 1 3.78081e-06 
18086 2 19.8924 9.84444 0.515616 1 5.24302e-06 
18141 2 20.8585 8.08864 1.99417 1 1.99792e-06 
18934 2 24.0694 9.43917 1.50162 1 2.46403e-06 
18936 2 22.1422 8.89906 0.0228447 1 2.70884e-06 
17 4 -65.6706 11.2818 1.60119 5 12.3904 
149 4 -63.4213 10.3369 2.09409 1 8.03005e-16 
150 4 -62.4573 12.6317 2.09409 1 6e-16 
152 4 -63.7427 11.8218 0.122491 1 6.00601e-16 
153 4 -61.4934 10.8769 0.61539 1 1.00604e-16 
477 4 -60.208 11.6868 2.58698 1 6.01202e-16 
481 4 -58.28 12.2267 1.10829 1 3.98886e-09 
1063 1 -56.0307 11.2818 1.60121 1 1.08442e-09 
1065 1 -54.1028 11.8217 0.122543 1 4.37729e-09 
1066 1 -53.7814 10.3368 2.09415 1 3.78094e-09 
1744 1 -52.8174 12.6316 2.09417 1 2.84077e-09 
1745 1 -51.8534 10.8768 0.615496 1 8.62724e-09 
1747 1 -50.5681 11.6866 2.58713 1 5.95123e-09 
2519 1 -48.6401 12.2265 1.10847 1 5.04202e-09 
2578 1 -46.3908 11.2815 1.60142 1 7.03104e-09 
3372 1 -44.4628 11.8214 0.122757 1 5.39138e-09 
3369 1 -44.1416 10.3365 2.09436 1 1.32809e-08 
3370 1 -43.1774 12.6312 2.09438 1 7.75194e-09 
3373 1 -42.2135 10.8764 0.615689 1 9.78973e-09 
4160 1 -40.9281 11.6862 2.58729 1 9.51837e-09 
4164 1 -39 12.226 1.10861 1 1.71973e-08 
5014 1 -36.7506 11.2811 1.60149 1 2.88799e-08 
5016 1 -34.8224 11.8209 0.122795 1 6.67509e-08 
5017 1 -34.5012 10.3362 2.09433 1 4.66983e-08 
5806 1 -33.5368 12.6308 2.09437 1 1.45953e-07 
5807 1 -32.5729 10.876 0.615611 1 1.11587e-07 
5809 1 -31.2873 11.6858 2.58717 1 2.49441e-07 
6599 1 -29.3589 12.2255 1.1084 1 5.25846e-07 
6658 1 -27.1092 11.2805 1.60119 1 9.51378e-07 
7449 1 -24.8594 10.3355 2.09405 1 1.6436e-06 
7452 1 -25.1805 11.8202 0.1224 1 1.93083e-06 
7450 1 -23.8956 12.6299 2.0941 1 2.04088e-06 
7453 1 -22.9306 10.8751 0.61527 1 3.46584e-06 
8240 1 -21.6459 11.6848 2.58727 1 3.14415e-06 
8244 1 -19.718 12.2246 1.1084 1 4.66413e-06 
9094 1 -17.4689 11.2791 1.60219 1 7.18984e-06 
9096 1 -15.5424 11.8187 0.123085 1 1.46859e-05 
9097 1 -15.2201 10.3331 2.09665 1 1.6124e-05 
9886 1 -14.2606 12.629 2.09589 1 2.49546e-05 
9887 1 -13.295 10.8716 0.617785 1 4.31775e-05 
9889 1 -12.0121 11.6824 2.58904 1 5.06713e-05 
10679 1 -10.0907 12.2198 1.10824 1 0.000279436 
10738 1 -7.83544 11.2737 1.59297 1 0.000670878 
11529 1 -5.58483 10.3328 2.07797 1 0.00636255 
11530 1 -4.63576 12.6181 2.05841 1 0.0224389 
11532 1 -5.91024 11.8125 0.0984019 1 0.00675629 
11533 1 -3.65255 10.9006 0.575708 1 0.0728754 
12320 1 -2.33573 11.7717 2.58839 1 0.335894 
13667 1 -0.544406 12.4666 1.00128 5 5.85088 
15040 2 2.5277 10.5086 1.90224 5 0.691442 
15041 2 3.51634 12.7454 1.93992 1 0.164407 
15043 2 1.64728 12.3254 0.348498 5 8.31636 
15646 2 5.76761 11.7606 1.48062 1 0.00434489 
15706 2 8.01708 10.7967 1.00161 1 0.000445719 
16440 2 9.93638 11.3328 2.4841 1 0.000107145 
16442 2 11.2177 12.1441 0.514823 1 7.83976e-05 
16443 2 12.1858 10.3847 1.99335 1 3.27095e-05 
17231 2 13.1418 12.6826 1.99425 1 3.53818e-05 
17232 2 13.4674 11.196 0.0227389 1 3.44777e-05 
17234 2 15.3924 11.736 1.50142 1 1.8534e-05 
18085 2 17.6425 10.79 1.00846 1 9.72963e-06 
18083 2 19.5695 11.3299 2.48733 1 7.73766e-06 
18876 2 20.8535 12.1399 0.515765 1 9.15348e-06 
18873 2 21.8195 10.3845 1.99444 1 4.48634e-06 
18874 2 22.782 12.6793 1.99462 1 5.31959e-06 
18877 2 23.1039 11.1944 0.0229804 1 5.12611e-06 
10 4 -66.956 14.5215 1.10829 5 37.1712 
121 4 -64.7067 13.5766 1.60119 1 8.00148e-24 
124 4 -62.7787 14.1165 0.122491 1 3e-16 
428 4 -61.4934 14.9265 2.09409 1 1.59886e-23 
480 4 -60.5294 13.1716 0.61539 1 6e-16 
478 4 -59.244 13.9816 2.58698 1 6.48789e-10 
1006 4 -57.3161 14.5215 1.10829 1 2.02114e-08 
1007 1 -55.0667 13.5765 1.60123 1 2.57653e-09 
1687 1 -53.1387 14.1164 0.12257 1 1.49781e-09 
1689 1 -51.8534 14.9263 2.0942 1 1.9704e-09 
1746 1 -50.8894 13.1715 0.615517 1 4.83587e-09 
2518 1 -49.6041 13.9813 2.58715 1 2.34231e-09 
2520 1 -47.676 14.5211 1.10848 1 2.80909e-09 
3312 1 -45.4267 13.5761 1.60144 1 3.33001e-09 
3315 1 -43.4987 14.116 0.122762 1 8.18622e-09 
4102 1 -42.2133 14.9258 2.09438 1 1.55895e-08 
4161 1 -39.9639 13.9808 2.5873 1 2.1359e-08 
4163 1 -41.2493 13.171 0.615697 1 1.04148e-08 
4957 1 -38.0358 14.5207 1.10861 1 5.47388e-08 
4958 1 -35.7863 13.5757 1.60151 1 9.34409e-08 
5749 1 -33.8582 14.1155 0.122797 1 1.7386e-07 
5751 1 -32.5728 14.9253 2.09436 1 2.38762e-07 
5808 1 -31.6086 13.1705 0.615619 1 2.91128e-07 
6598 1 -30.3232 13.9804 2.58718 1 4.13077e-07 
6600 1 -28.395 14.5201 1.10836 1 6.71982e-07 
7392 1 -26.1453 13.575 1.60118 1 1.19855e-06 
7395 1 -24.2172 14.1149 0.122294 1 1.77033e-06 
8182 1 -22.9329 14.9249 2.094 1 1.22022e-06 
8243 1 -21.9675 13.1698 0.615185 1 3.05362e-06 
8241 1 -20.6836 13.9798 2.58722 1 1.86244e-06 
9037 1 -18.7567 14.5201 1.10819 1 3.34044e-06 
9038 1 -16.5085 13.5749 1.60191 1 8.28731e-06 
9829 1 -14.584 14.1153 0.122426 1 2.70291e-05 
9831 1 -13.3014 14.9261 2.09452 1 3.38498e-05 
9888 1 -12.3381 13.1683 0.616297 1 9.54235e-05 
10678 1 -11.0532 13.9796 2.5855 1 7.78809e-05 
10680 1 -9.13387 14.5176 1.10121 1 0.000242339 
11472 1 -6.87927 13.5683 1.57859 1 0.00164787 
11475 1 -4.95259 14.106 0.0756016 1 0.0164104 
12262 1 -3.70133 14.8988 2.04872 1 0.0892044 
12321 1 -1.2958 14.1129 2.61133 5 1.2116 
12323 1 -2.71946 13.18 0.558047 1 0.308789 
14278 3 0.398152 15.0128 0.950522 5 6.43584 
14983 2 1.14022 13.4335 2.57115 5 1.54118 
14986 2 2.57826 14.5176 0.422862 5 5.87594 
15586 2 4.47164 14.9983 1.97983 1 0.0415283 
15647 2 6.71356 14.0472 1.48902 1 0.00138016 
16383 2 8.96714 13.0949 1.00473 1 0.000199083 
16385 2 10.8904 13.6302 2.48661 1 7.91743e-05 
17173 2 12.1722 14.4406 0.515988 1 8.35881e-05 
17175 2 14.1007 14.9778 1.99507 1 4.77782e-05 
17233 2 14.4238 13.4929 0.0228921 1 4.44777e-05 
18027 2 16.352 14.0314 1.50178 1 2.58719e-05 
18028 2 18.6029 13.0855 1.00866 1 1.5393e-05 
18815 2 20.5317 13.6246 2.4876 1 8.44319e-06 
18819 2 21.817 14.4341 0.515825 1 6.47834e-06 
19608 2 23.7463 14.9734 1.99463 1 2.64588e-06 
19671 2 24.0675 13.4889 0.0230172 1 3.79563e-06 
102 4 -65.992 16.8163 1.10829 5 18.5856 
122 4 -63.7427 15.8714 1.60119 1 6e-16 
429 4 -60.5294 17.2212 2.09409 1 5e-16 
431 4 -61.8147 16.4113 0.122491 1 2e-16 
432 4 -59.5654 15.4664 0.61539 1 3e-16 
945 4 -58.28 16.2763 2.58698 1 6.58192e-09 
948 4 -58.6014 17.7612 0.61539 1 3.2011e-09 
949 1 -56.352 16.8162 1.10831 1 5.35712e-09 
1686 1 -54.1027 15.8712 1.60125 1 2.0661e-09 
1688 1 -52.1747 16.4111 0.122597 1 2.04991e-09 
2460 1 -50.8894 17.2209 2.09421 1 2.55167e-09 
2461 1 -49.9254 15.4661 0.615538 1 2.66676e-09 
2462 1 -48.9613 17.7608 0.615557 1 7.65281e-09 
2463 1 -48.64 16.2759 2.58717 1 4.33742e-09 
3254 1 -46.712 16.8158 1.1085 1 9.91666e-09 
3313 1 -44.4626 15.8708 1.60145 1 1.42227e-08 
4105 1 -42.5346 16.4106 0.122757 1 2.07327e-08 
4103 1 -41.2493 17.2205 2.09437 1 3.19496e-08 
4106 1 -40.2852 15.4657 0.615687 1 3.04858e-08 
4899 1 -39.3212 17.7603 0.615667 1 4.92343e-08 
4896 1 -38.9998 16.2755 2.58729 1 4.74928e-08 
4900 1 -37.0718 16.8153 1.10859 1 8.05973e-08 
5748 1 -34.8223 15.8703 1.60149 1 1.40277e-07 
5750 1 -32.8943 16.4102 0.122752 1 2.21671e-07 
6540 1 -31.6091 17.2201 2.09428 1 2.16494e-07 
6541 1 -30.6447 15.4652 0.615572 1 3.76992e-07 
6542 1 -29.6813 17.76 0.615449 1 2.26879e-07 
6543 1 -29.3596 16.2751 2.5871 1 3.80997e-07 
7334 1 -27.4318 16.815 1.10823 1 4.10005e-07 
7393 1 -25.1823 15.87 1.60105 1 7.38124e-07 
8183 1 -21.9708 17.2203 2.09376 1 8.23865e-07 
8185 1 -23.2548 16.41 0.122087 1 9.63461e-07 
8186 1 -21.0055 15.4651 0.614979 1 1.82907e-06 
8976 1 -19.7221 16.2754 2.58697 1 1.42795e-06 
8979 1 -20.044 17.7609 0.614683 1 2.45741e-06 
8980 1 -17.7959 16.8163 1.10783 1 4.64701e-06 
9828 1 -15.5486 15.8715 1.60134 1 1.27863e-05 
9830 1 -13.6254 16.4129 0.12122 1 4.50073e-05 
10620 1 -12.3413 17.2236 2.09283 1 5.34252e-05 
10621 1 -11.3807 15.4665 0.613456 1 0.000118377 
10622 1 -10.4203 17.7645 0.609893 1 0.000207096 
10623 1 -10.0947 16.2772 2.58139 1 0.000166336 
11414 1 -8.17547 16.8155 1.09316 1 0.000445595 
11473 1 -5.92873 15.8613 1.56676 1 0.00229251 
12265 1 -4.00471 16.3943 0.061893 1 0.0376475 
12263 1 -2.75077 17.1904 2.04703 1 0.183227 
12266 1 -1.83229 15.4243 0.57575 5 1.75844 
13020 1 -0.876887 17.6127 0.557309 5 5.79587 
14929 2 1.35133 17.4658 0.978579 5 6.59475 
14984 2 2.15538 15.8134 2.53016 1 0.500676 
15589 2 3.51295 16.7325 0.491235 5 0.839045 
15587 2 5.41016 17.2802 1.99679 1 0.012237 
16324 2 7.66128 16.3362 1.49868 1 0.000859172 
16384 2 9.91909 15.3895 1.00856 1 0.000199965 
17115 2 10.8796 17.681 1.01129 1 0.00024061 
17172 2 11.8482 15.9247 2.48835 1 0.00011386 
17174 2 13.1331 16.7336 0.516897 1 7.8368e-05 
17967 2 15.0649 17.2704 1.99556 1 2.36036e-05 
17968 2 15.385 15.7869 0.0231003 1 3.97858e-05 
17970 2 17.3158 16.3248 1.50198 1 1.45973e-05 
18761 2 20.5325 17.6725 1.00873 1 3.00282e-06 
18816 2 21.4962 15.9183 2.48763 1 3.95608e-06 
18818 2 19.5664 15.3794 1.00876 1 1.00148e-05 
19611 2 22.7825 16.7277 0.515789 1 2.0156e-06 
101 4 -66.956 18.5711 2.58698 5 37.1712 
103 4 -65.028 19.111 1.10829 5 6.1952 
388 4 -62.7787 18.1661 1.60119 1 4e-16 
391 4 -60.8507 18.7061 0.122491 1 8e-16 
888 4 -59.5654 19.516 2.09409 1 5e-16 
892 4 -57.6374 20.0559 0.61539 1 1.48849e-08 
946 4 -57.3161 18.5711 2.58698 1 2.44697e-08 
1629 1 -55.388 19.111 1.10831 1 4.98071e-09 
1630 1 -53.1387 18.166 1.60126 1 1.84212e-09 
2403 1 -51.2107 18.7058 0.122615 1 5.29561e-09 
2405 1 -49.9254 19.5156 2.09423 1 6.19497e-09 
3196 1 -47.9973 20.0555 0.615574 1 1.04582e-08 
3253 1 -47.676 18.5706 2.58718 1 1.06018e-08 
3255 1 -45.748 19.1105 1.10852 1 1.68057e-08 
4045 1 -43.4986 18.1655 1.60145 1 2.62689e-08 
4048 1 -41.5706 18.7053 0.122752 1 3.05572e-08 
4838 1 -40.2854 19.5152 2.09435 1 3.34321e-08 
4842 1 -38.3574 20.0551 0.615651 1 3.11517e-08 
4897 1 -38.036 18.5702 2.58726 1 5.06692e-08 
5691 1 -36.108 19.1101 1.10854 1 6.11029e-08 
5692 1 -33.8586 18.1651 1.60143 1 1.20284e-07 
6483 1 -31.9307 18.705 0.122654 1 1.32127e-07 
6485 1 -30.6457 19.515 2.09412 1 9.25991e-08 
7276 1 -28.7181 20.0551 0.615266 1 1.56423e-07 
7333 1 -28.3964 18.5701 2.58691 1 1.67066e-07 
7335 1 -26.4689 19.1102 1.10801 1 2.65856e-07 
8125 1 -24.2197 18.1652 1.60081 1 4.87156e-07 
8128 1 -22.2926 18.7056 0.121825 1 1.34871e-06 
8918 1 -21.0085 19.516 2.09347 1 2.11739e-06 
8922 1 -19.0816 20.0568 0.614423 1 6.44393e-06 
8977 1 -18.7604 18.5713 2.58665 1 3.20797e-06 
9771 1 -16.8342 19.1126 1.10749 1 1.13498e-05 
9772 1 -14.5876 18.1683 1.60073 1 2.62576e-05 
10563 1 -12.664 18.7102 0.119948 1 9.55029e-05 
10565 1 -11.3777 19.52 2.09191 1 0.000105433 
11356 1 -9.45146 20.0596 0.608279 1 0.000311708 
11413 1 -9.13354 18.5736 2.57818 1 0.000410895 
11415 1 -7.20663 19.1093 1.08699 1 0.00170095 
12205 1 -4.97227 18.1494 1.56215 1 0.00268205 
12208 1 -3.03942 18.6578 0.0557509 1 0.0339733 
12962 1 -1.75031 19.4519 2.02398 1 0.37671 
12966 3 0.0872988 19.8182 0.417978 5 8.92834 
15528 2 3.12903 18.1624 2.53484 1 0.321642 
15531 2 2.2607 19.9512 1.10424 5 4.53068 
15532 2 4.41127 19.0131 0.519412 1 0.0671693 
16264 2 6.35517 19.5695 2.00152 1 0.00575014 
16268 2 7.65633 20.3768 0.0332577 1 0.00110825 
16325 2 8.61978 18.6261 1.50492 1 0.000898728 
16327 2 6.67989 18.0901 0.0228936 1 0.00452732 
17116 2 11.8506 19.9697 1.01167 1 4.52908e-05 
17117 2 12.8134 18.2161 2.48945 1 5.32717e-05 
17909 2 14.1011 19.0243 0.516978 1 1.39144e-05 
17911 2 16.0329 19.5621 1.99553 1 5.53958e-06 
17969 2 16.3514 18.0789 0.0230996 1 1.06286e-05 
18701 2 17.3201 20.3709 0.0230291 1 5.16116e-06 
18760 2 18.2826 18.6173 1.50193 1 3.83858e-06 
19553 2 21.4995 19.9658 1.00859 1 2.13202e-06 
19550 2 22.4624 18.2118 2.48748 1 1.21124e-06 
19554 2 23.7488 19.0214 0.515689 1 1.11749e-06 
92 4 -66.3133 22.3507 0.61539 5 24.7808 
93 4 -65.992 20.8658 2.58698 5 18.5856 
357 4 -64.064 21.4058 1.10829 1 7e-16 
389 4 -61.8147 20.4609 1.60119 1 8.00148e-24 
836 4 -60.8507 22.7556 1.60119 1 8e-16 
891 4 -59.8867 21.0008 0.122491 1 8e-16 
889 4 -58.6014 21.8107 2.09409 1 4.13953e-09 
1568 1 -56.352 20.8658 2.587 1 6.44782e-09 
1571 1 -56.6734 22.3506 0.615404 1 4.07168e-09 
1572 1 -54.424 21.4057 1.10833 1 6.80043e-09 
2402 1 -52.1747 20.4607 1.60128 1 5.46945e-09 
2346 1 -51.2107 22.7554 1.60129 1 5.0892e-09 
2404 1 -50.2467 21.0005 0.122625 1 9.66196e-09 
3195 1 -48.9614 21.8104 2.09424 1 5.26233e-09 
3197 1 -47.0334 22.3503 0.615589 1 3.76347e-09 
3198 1 -46.7121 20.8653 2.58719 1 1.11167e-08 
3987 1 -44.7841 21.4052 1.10853 1 1.02422e-08 
4046 1 -42.5347 20.4602 1.60144 1 2.33723e-08 
4781 1 -41.5709 22.755 1.60145 1 1.33943e-08 
4839 1 -39.3216 21.81 2.09434 1 1.84588e-08 
4841 1 -40.6068 21.0001 0.122754 1 1.8915e-08 
5630 1 -37.0722 20.865 2.58722 1 3.09927e-08 
5633 1 -37.3937 22.3499 0.615634 1 2.28286e-08 
5634 1 -35.1444 21.405 1.10848 1 3.58673e-08 
6426 1 -31.9316 22.755 1.60118 1 1.26957e-07 
6482 1 -32.8951 20.46 1.60132 1 5.85834e-08 
6484 1 -30.9674 21 0.122518 1 1.06269e-07 
7275 1 -29.6824 21.8101 2.09393 1 2.01139e-07 
7277 1 -27.7548 22.3503 0.615081 1 5.29417e-07 
7278 1 -27.4333 20.8653 2.58667 1 3.29403e-07 
8067 1 -25.5058 21.4055 1.10778 1 8.5916e-07 
8126 1 -23.257 20.4607 1.60054 1 1.39068e-06 
8861 1 -22.2933 22.756 1.60039 1 3.14013e-06 
8919 1 -20.0451 21.8114 2.09336 1 5.17868e-06 
8921 1 -21.3297 21.0012 0.121593 1 3.72188e-06 
9710 1 -17.7974 20.867 2.58663 1 8.6861e-06 
9713 1 -18.1172 22.352 0.614541 1 9.84358e-06 
9714 1 -15.87 21.4079 1.10775 1 1.80096e-05 
10506 1 -12.6564 22.7574 1.60338 1 6.62757e-05 
10562 1 -13.6238 20.464 1.60097 1 4.5009e-05 
10564 1 -11.6972 21.0049 0.120704 1 0.000108978 
11355 1 -10.4091 21.8133 2.09444 1 0.000140599 
11357 1 -8.48001 22.3508 0.613391 1 0.000497899 
11358 1 -8.16664 20.8647 2.58187 1 0.000463155 
12147 1 -6.23925 21.393 1.09693 1 0.00259248 
12206 1 -4.00049 20.4181 1.56727 1 0.00736612 
12905 1 -2.99055 22.676 1.57331 1 0.0500187 
12965 1 -2.09702 20.9128 0.0522602 5 0.503921 
12963 3 -0.685848 21.6526 1.96295 5 5.064 
15474 2 3.13559 22.2604 1.06071 1 0.120514 
15529 2 4.09141 20.5076 2.54379 1 0.140998 
16206 2 5.10803 22.7882 2.50344 1 0.0167917 
16267 2 5.38056 21.3065 0.533735 1 0.0126474 
16265 2 7.34469 21.852 2.00021 1 0.00187189 
17059 2 8.63931 22.664 0.0296841 1 0.000319925 
17056 2 9.59835 20.9129 1.50658 1 0.000144054 
17851 2 12.8223 22.2595 1.01116 1 2.17249e-05 
17908 2 13.7832 20.5067 2.48966 1 1.33907e-05 
17853 2 14.7532 22.7985 2.48881 1 1.29873e-05 
17910 2 15.071 21.3153 0.516754 1 8.68432e-06 
18700 2 17.0017 21.8544 1.99505 1 6.60835e-06 
18702 2 18.2885 22.6639 0.0228777 1 7.6977e-06 
18703 2 19.2504 20.9102 1.50167 1 3.73362e-06 
19496 2 22.466 22.2598 1.00844 1 3.65257e-06 
19551 2 23.4287 20.5056 2.48724 1 1.84911e-06 
334 4 -65.3493 24.6454 0.61539 5 6.1952 
356 4 -65.028 23.1606 2.58698 5 6.1952 
336 4 -64.064 25.4554 2.58698 1 5e-16 
358 4 -63.1 23.7005 1.10829 1 6e-16 
837 4 -59.8867 25.0504 1.60119 1 7.99999e-16 
839 4 -58.9227 23.2956 0.122491 1 2.50056e-09 
1510 4 -57.6374 24.1055 2.09409 1 1.83106e-08 
1514 1 -55.7094 24.6454 0.615421 1 2.61436e-09 
1569 1 -55.388 23.1605 2.58702 1 3.45053e-09 
2284 1 -54.4241 25.4552 2.58705 1 2.32916e-09 
2345 1 -53.46 23.7004 1.10836 1 3.96584e-09 
3137 1 -50.2468 25.0501 1.60133 1 3.375e-09 
3138 1 -49.2828 23.2953 0.12264 1 5.54254e-09 
3140 1 -47.9975 24.1051 2.09427 1 3.55946e-09 
3929 1 -46.0696 24.645 0.615608 1 5.28168e-09 
3931 1 -44.7843 25.4549 2.58721 1 6.23975e-09 
3986 1 -45.7482 23.1601 2.5872 1 4.4894e-09 
3988 1 -43.8203 23.7 1.10854 1 5.74601e-09 
4782 1 -40.6071 25.0498 1.60145 1 2.60004e-08 
4784 1 -39.6431 23.2949 0.122761 1 1.85792e-08 
5572 1 -38.3578 24.1048 2.09432 1 3.24282e-08 
5576 1 -36.43 24.6448 0.615607 1 6.19263e-08 
5631 1 -36.1085 23.1599 2.58715 1 3.56032e-08 
6364 1 -35.1448 25.4548 2.58709 1 8.4667e-08 
6425 1 -34.1808 23.6999 1.10841 1 8.18129e-08 
7217 1 -30.9678 25.05 1.60106 1 3.17125e-07 
7218 1 -30.0039 23.2951 0.122384 1 3.3479e-07 
7220 1 -28.7187 24.1052 2.09376 1 5.56659e-07 
8009 1 -26.7908 24.6453 0.614956 1 1.00998e-06 
8066 1 -26.4698 23.1604 2.58646 1 9.68064e-07 
8011 1 -25.5055 25.4554 2.58639 1 1.41051e-06 
8068 1 -24.5419 23.7006 1.10763 1 1.81408e-06 
8862 1 -21.3282 25.0507 1.60055 1 3.31151e-06 
8864 1 -20.3652 23.2963 0.121592 1 5.51239e-06 
9652 1 -19.0799 24.1061 2.09376 1 5.80879e-06 
9656 1 -17.1506 24.646 0.615413 1 7.19267e-06 
9711 1 -16.8322 23.1616 2.58741 1 1.19447e-05 
10444 1 -15.8647 25.4548 2.58906 1 9.84153e-06 
10505 1 -14.9031 23.7015 1.10934 1 1.6426e-05 
11297 1 -11.6856 25.0486 1.60749 1 0.00011612 
11298 1 -10.728 23.2967 0.125311 1 0.000234948 
11300 1 -9.43429 24.1045 2.09954 1 0.000255486 
12089 1 -7.49918 24.6421 0.624097 1 0.00125534 
12091 1 -6.19519 25.4379 2.60399 1 0.0124399 
12146 1 -7.18978 23.1532 2.58919 1 0.00153302 
12148 1 -5.25347 23.6792 1.1212 1 0.0126694 
12906 1 -1.9473 24.8934 1.58165 5 1.17656 
13542 3 0.875867 23.3398 1.44309 5 3.7997 
13543 3 -0.0724791 25.2672 0.0415393 5 2.5847 
16207 2 6.08667 25.0783 2.4952 1 0.00455252 
16209 2 4.13381 24.5546 1.02206 1 0.0177297 
16210 2 6.38225 23.6013 0.522961 1 0.00261886 
16996 2 8.32406 24.1411 1.99995 1 0.000521846 
17000 2 9.61371 24.9544 0.0271427 1 7.73435e-05 
17057 2 10.5732 23.2021 1.50611 1 6.73574e-05 
17792 2 11.5443 25.4945 1.5042 1 3.58999e-05 
17852 2 13.7924 24.5517 1.01014 1 1.98903e-05 
18641 2 15.7214 25.0922 2.48772 1 1.43117e-05 
18642 2 16.0403 23.608 0.516316 1 1.24308e-05 
18644 2 17.9693 24.1482 1.99446 1 9.56098e-06 
19436 2 19.2552 24.9584 0.022716 1 1.02703e-05 
19495 2 20.2175 23.2041 1.50137 1 6.03297e-06 
20287 2 23.4311 24.5548 1.00836 1 3.8025e-06 
319 4 -66.6346 27.8851 0.122491 5 30.976 
333 4 -66.3133 26.4003 2.09409 5 24.7808 
335 4 -64.3853 26.9402 0.61539 1 1.2e-15 
792 4 -63.1 27.7501 2.58698 1 9e-16 
793 4 -62.136 25.9953 1.10829 1 7.00001e-16 
1453 4 -58.9227 27.3452 1.60119 1 2.41593e-09 
1456 1 -56.9947 27.8851 0.122506 1 3.33134e-09 
1513 4 -57.9587 25.5903 0.122491 1 9.7535e-09 
1511 1 -56.6734 26.4002 2.09411 1 4.03443e-09 
2287 1 -54.7454 26.9401 0.615445 1 1.77693e-09 
2285 1 -53.4601 27.75 2.58708 1 2.28601e-09 
2288 1 -52.4961 25.9951 1.10839 1 1.95418e-09 
3081 1 -49.2829 27.3449 1.60138 1 5.47523e-09 
3139 1 -48.3188 25.5901 0.122672 1 6.25971e-09 
3871 1 -47.3549 27.8848 0.122707 1 3.80832e-09 
3928 1 -47.0336 26.3999 2.0943 1 5.15564e-09 
3930 1 -45.1057 26.9398 0.615629 1 7.43628e-09 
4722 1 -43.8204 27.7497 2.58723 1 1.67432e-08 
4723 1 -42.8564 25.9948 1.10855 1 9.60379e-09 
5515 1 -39.6432 27.3446 1.60145 1 5.46167e-08 
5518 1 -37.7153 27.8846 0.122752 1 9.93084e-08 