ITEM: TIMESTEP
0
ITEM: NUMBER OF ATOMS
25908
ITEM: BOX BOUNDS ss pp pp
-70.6516 117.9
0 31.68
0 47.2258
ITEM: ATOMS id type x y z c_cna c_csd 
2 4 -70.1267 2.24773 1.07433 5 24.7808 
4 4 -68.5525 0.487726 0.28723 5 6.1952 
46 4 -67.7654 2.24773 1.86142 1 9.00482e-16 
71 4 -66.1913 0.487726 1.07433 1 7.98982e-16 
73 4 -63.83 0.487726 1.86142 1 9.00481e-16 
246 4 -61.9934 1.07439 0.28723 1 3.23232e-09 
288 1 -59.6321 1.07436 1.07434 1 5.15449e-09 
590 1 -57.2709 1.07435 1.86146 1 1.84922e-09 
594 1 -55.4343 1.66103 0.287287 1 6.27429e-09 
1065 1 -53.0731 1.66108 1.07438 1 3.5092e-09 
1067 1 -50.7118 1.66113 1.86147 1 5.18233e-09 
1588 1 -48.8753 2.24788 0.287277 1 5.52313e-09 
1646 1 -46.514 2.24794 1.07438 1 1.54656e-08 
1649 1 -44.9398 0.487945 0.287317 1 2.28087e-08 
2246 1 -44.1527 2.24793 1.86151 1 1.56672e-08 
2306 1 -42.5785 0.48786 1.07445 1 7.06956e-09 
2308 1 -40.2172 0.487745 1.86157 1 7.07635e-09 
2908 1 -38.3807 1.07429 0.287374 1 9.29199e-10 
2965 1 -36.0194 1.07415 1.07447 1 1.47652e-09 
3566 1 -33.6582 1.07402 1.86154 1 5.80895e-09 
3570 1 -31.8216 1.66059 0.287338 1 7.1995e-09 
4227 1 -29.4604 1.66051 1.07438 1 1.75797e-08 
4229 1 -27.0991 1.66048 1.86138 1 1.47308e-08 
4828 1 -25.2625 2.2472 0.287138 1 3.10706e-08 
4886 1 -22.9012 2.24725 1.07417 1 1.26908e-07 
4889 1 -21.3272 0.487348 0.286944 1 1.24419e-07 
5486 1 -20.5398 2.24724 1.8612 1 5.01936e-07 
5546 1 -18.9658 0.487304 1.07396 1 5.68175e-07 
5548 1 -16.6045 0.487083 1.86093 1 4.63288e-06 
6148 1 -14.7672 1.07357 0.287445 1 1.68516e-05 
6205 1 -12.405 1.07211 1.07488 1 0.000108493 
6806 1 -10.0435 1.07029 1.86272 1 0.000662613 
6810 1 -8.20041 1.64812 0.291591 1 0.00337969 
7467 1 -5.8274 1.63247 1.08108 1 0.0208035 
7469 1 -3.43904 1.60185 1.86332 5 0.683483 
8068 1 -1.49412 2.27393 0.544458 5 4.36901 
10126 2 1.34457 1.58927 1.07689 5 2.69453 
10561 2 3.70168 0.889932 1.60762 1 0.0297378 
10562 2 5.32973 2.63017 2.39894 1 0.0096565 
10615 2 6.09395 0.292939 2.13172 1 0.00211411 
11058 2 6.91783 2.0579 0.5711 1 0.00538874 
11111 2 9.28172 1.46856 1.09175 1 0.000976772 
11623 2 11.6435 0.879023 1.61498 1 0.000211417 
11624 2 13.2175 2.63775 2.40147 1 4.12144e-05 
11677 2 14.0044 0.291104 2.13918 1 4.87117e-05 
12138 2 14.7918 2.0523 0.565179 1 2.53105e-05 
12191 2 17.1522 1.46449 1.08959 1 5.0413e-06 
10893 2 20.2994 2.63735 0.0399373 1 4.73049e-07 
12703 2 19.513 0.877355 1.61426 1 9.79982e-07 
12704 2 21.0868 2.63728 2.40139 1 2.10141e-07 
12757 2 21.8739 0.290502 2.13906 1 2.13255e-07 
13218 2 22.6607 2.05049 0.564828 1 1.41218e-07 
33 4 -69.8644 4.59439 0.28723 5 18.5856 
47 4 -67.5031 4.59439 1.07433 1 9.98983e-16 
50 4 -65.9289 2.83439 0.28723 1 5.99948e-16 
209 4 -65.1418 4.59439 1.86142 1 1.50048e-15 
213 4 -63.3052 5.18106 0.28723 1 5.00008e-16 
245 4 -63.5676 2.83439 1.07433 1 1.09892e-15 
248 4 -61.2063 2.83439 1.86142 1 1.00432e-08 
536 4 -60.944 5.18106 1.07433 1 1.34677e-08 
537 1 -59.3698 3.42102 0.287256 1 6.74382e-09 
539 1 -58.5827 5.18101 1.86146 1 9.44138e-09 
591 1 -57.0085 3.42101 1.07438 1 4.01903e-09 
1004 1 -54.6472 3.42104 1.86148 1 3.41817e-09 
1008 1 -52.8107 4.00775 0.287294 1 2.42282e-09 
1587 1 -50.4494 4.00782 1.07439 1 2.51059e-09 
1590 1 -48.0882 4.0079 1.86148 1 2.13698e-09 
2188 1 -46.2516 4.59461 0.28728 1 1.94972e-08 
2247 1 -43.8903 4.59458 1.07439 1 1.66934e-08 
2250 1 -42.3161 2.8345 0.287347 1 2.7883e-09 
2846 1 -41.529 4.59447 1.86154 1 4.63961e-09 
2850 1 -39.6925 5.18105 0.287367 1 5.11594e-09 
2907 1 -39.9549 2.83439 1.07447 1 4.98437e-09 
2910 1 -37.5936 2.83424 1.86157 1 3.15829e-09 
3507 1 -37.3312 5.18089 1.07448 1 1.97233e-09 
3508 1 -35.7571 3.42081 0.287368 1 2.43005e-09 
3510 1 -34.97 5.18076 1.86157 1 3.94541e-09 
3567 1 -33.3958 3.42068 1.07445 1 4.65601e-09 
4166 1 -31.0345 3.42055 1.86152 1 1.37654e-08 
4170 1 -29.198 4.00716 0.287271 1 1.57599e-08 
4827 1 -26.8367 4.00715 1.07428 1 1.77706e-08 
4830 1 -24.4754 4.00717 1.8613 1 7.37723e-08 
5428 1 -22.6389 4.59394 0.287079 1 1.81179e-07 
5487 1 -20.2774 4.59396 1.07408 1 5.84702e-07 
5490 1 -18.7032 2.83401 0.28723 1 2.56746e-06 
6086 1 -17.9156 4.59385 1.86098 1 2.15478e-06 
6090 1 -16.0795 5.18068 0.286752 1 4.10783e-06 
6147 1 -16.3412 2.83375 1.07448 1 1.12607e-05 
6150 1 -13.9781 2.83316 1.86173 1 5.87758e-05 
6747 1 -13.7168 5.17997 1.07285 1 2.0266e-05 
6748 1 -12.1421 3.41851 0.288005 1 9.5498e-05 
6750 1 -11.3537 5.17903 1.8571 1 0.000183878 
6807 1 -9.7758 3.41536 1.07325 1 0.000488896 
7406 1 -7.40662 3.41084 1.85387 1 0.00383735 
7410 1 -5.56156 3.98848 0.27113 1 0.0134641 
8067 1 -3.14859 3.98766 1.0462 5 2.08996 
10087 2 0.485623 3.7984 1.20375 5 4.13472 
10560 2 2.96439 3.24026 1.87243 1 0.119943 
9739 2 4.56217 2.64797 0.05509 1 0.0512922 
10512 2 3.74637 5.03307 0.327524 1 0.0690288 
11057 2 6.12134 4.41097 0.835545 1 0.00338711 
11059 2 8.49158 3.81546 1.35349 1 0.000452732 
11622 2 10.856 3.22579 1.87689 1 0.000140012 
10072 2 12.4318 2.64148 0.0413874 1 0.000116292 
11574 2 11.6422 4.98981 0.302931 1 0.000162807 
12137 2 14.0036 4.39986 0.827351 1 3.53967e-05 
12139 2 16.3646 3.8116 1.3519 1 6.94078e-06 
12654 2 19.5123 4.98411 0.302303 1 8.3925e-07 
12702 2 18.7257 3.22424 1.87659 1 1.21326e-06 
13217 2 21.8736 4.39721 0.827164 1 2.23013e-07 
35 4 -69.0773 6.35439 1.86142 5 12.3904 
186 4 -67.2407 6.94106 0.28723 1 3.00008e-16 
210 4 -64.8794 6.94106 1.07433 1 1.39898e-15 
490 4 -62.5181 6.94106 1.86142 1 1.69831e-09 
494 1 -60.6816 7.52771 0.287238 1 2.73654e-09 
945 1 -58.3203 7.52769 1.07436 1 3.56436e-09 
946 1 -56.7462 5.76769 0.287289 1 4.23673e-09 
948 1 -55.9591 7.5277 1.86147 1 1.48565e-09 
1005 1 -54.3849 5.76772 1.07439 1 2.25405e-09 
1526 1 -52.0236 5.76777 1.86149 1 1.81134e-09 
1530 1 -50.1871 6.35448 0.287307 1 4.77898e-09 
2187 1 -47.8258 6.35456 1.0744 1 6.20793e-09 
2190 1 -45.4645 6.35461 1.86149 1 2.13998e-08 
2788 1 -43.628 6.94124 0.287306 1 1.15223e-08 
2847 1 -41.2667 6.94113 1.07444 1 4.71559e-09 
3446 1 -38.9054 6.94099 1.86157 1 4.60012e-09 
3450 1 -37.0689 7.52755 0.287384 1 2.93112e-09 
4107 1 -34.7076 7.52741 1.07447 1 5.15861e-09 
4108 1 -33.1335 5.76733 0.287349 1 3.78591e-09 
4110 1 -32.3463 7.52728 1.86154 1 5.53026e-09 
4167 1 -30.7722 5.76721 1.07441 1 1.24153e-08 
4766 1 -28.4109 5.76714 1.86141 1 1.20727e-08 
4770 1 -26.5744 6.35383 0.287144 1 1.87622e-08 
5427 1 -24.2131 6.35387 1.07415 1 4.57783e-08 
5430 1 -21.8517 6.35389 1.86111 1 2.28392e-07 
6028 1 -20.0153 6.94072 0.286807 1 5.54653e-07 
6087 1 -17.6536 6.94064 1.07357 1 2.32552e-06 
6686 1 -15.2914 6.94026 1.85997 1 1.61246e-05 
6690 1 -13.4547 7.52677 0.285178 1 3.78736e-05 
7347 1 -11.0909 7.52465 1.06959 1 0.00030649 
7348 1 -9.51636 5.76357 0.276984 1 0.000993508 
7350 1 -8.72796 7.52155 1.8523 1 0.0022203 
7407 1 -7.15516 5.75751 1.04701 1 0.00825037 
8006 1 -4.82214 5.74891 1.8067 1 0.0728367 
8010 1 -2.85544 6.3325 0.220384 1 0.329456 
8065 1 -2.56975 5.74485 2.57761 5 4.54427 
8633 1 -0.420755 6.26805 1.42242 5 7.21508 
10508 2 1.3312 7.87507 2.20779 5 4.31363 
10509 2 2.06789 5.54912 2.13024 1 0.318047 
10510 2 2.9172 7.34797 0.508659 5 1.08546 
11010 2 5.32693 6.7648 1.07217 1 0.0142553 
11055 2 7.69937 6.16375 1.60785 1 0.00160005 
11571 2 10.0654 5.57263 2.13674 1 0.00023307 
11572 2 10.8516 7.3377 0.566679 1 0.000287283 
12090 2 13.2147 6.74718 1.09021 1 7.40406e-05 
12135 2 15.5768 6.15858 1.61441 1 1.65401e-05 
10866 2 16.3645 7.91809 0.0401017 1 5.05962e-06 
12650 2 17.1514 7.91762 2.40132 1 3.86215e-06 
12651 2 17.9383 5.57106 2.13897 1 3.31525e-06 
12652 2 18.7255 7.33079 0.564704 1 7.43837e-07 
13170 2 21.0867 6.74387 1.08951 1 1.26046e-07 
13215 2 23.4479 6.1571 1.61436 1 3.34194e-08 
170 4 -70.3891 10.4611 1.86142 5 30.976 
185 4 -68.8149 8.70106 1.07433 5 6.1952 
188 4 -66.4536 8.70106 1.86142 1 1.20068e-15 
457 4 -64.6171 9.28773 0.28723 1 5.00009e-16 
491 4 -62.2558 9.28773 1.07433 1 2.7548e-09 
889 1 -59.8945 9.2877 1.86143 1 4.92149e-09 
893 1 -58.058 9.87435 0.287257 1 3.44794e-09 
1467 1 -55.6967 9.87437 1.07437 1 2.28827e-09 
1468 1 -54.1225 8.11438 0.28728 1 1.36701e-09 
1470 1 -53.3354 9.8744 1.86147 1 2.96329e-09 
1527 1 -51.7613 8.11443 1.07438 1 3.74603e-09 
2068 1 -51.4989 10.4611 0.287272 1 8.34227e-09 
2126 1 -49.4 8.1145 1.86149 1 3.95156e-09 
2127 1 -49.1376 10.4612 1.07438 1 2.17449e-09 
2130 1 -47.5634 8.70124 0.287312 1 7.53119e-09 
2726 1 -46.7764 10.4613 1.86148 1 1.41711e-08 
2787 1 -45.2022 8.70128 1.0744 1 2.60463e-08 
2790 1 -42.8409 8.7012 1.86152 1 3.18002e-09 
3388 1 -41.0043 9.28779 0.287359 1 5.04643e-09 
3447 1 -38.6431 9.28765 1.07447 1 2.29886e-09 
4046 1 -36.2818 9.2875 1.86157 1 2.13424e-09 
4050 1 -34.4453 9.87406 0.287373 1 3.89523e-09 
4707 1 -32.084 9.87394 1.07444 1 8.80363e-09 
4708 1 -30.5098 8.11387 0.287299 1 1.33252e-08 
4710 1 -29.7227 9.87384 1.86147 1 1.42862e-08 
4767 1 -28.1486 8.11381 1.07429 1 1.6546e-08 
5308 1 -27.8862 10.4605 0.287197 1 2.0297e-08 
5366 1 -25.7873 8.11382 1.86126 1 2.76285e-08 
5367 1 -25.525 10.4605 1.07417 1 2.88887e-08 
5370 1 -23.9508 8.7006 0.286982 1 9.82434e-08 
5966 1 -23.1637 10.4605 1.86115 1 9.36246e-08 
6027 1 -21.5896 8.70062 1.07391 1 2.82048e-07 
6030 1 -19.2283 8.70055 1.86072 1 1.14297e-06 
6628 1 -17.3918 9.28746 0.286439 1 2.34574e-06 
6687 1 -15.0304 9.28696 1.07285 1 1.68878e-05 
7286 1 -12.6701 9.28593 1.85857 1 0.000152766 
7290 1 -10.8317 9.87075 0.282686 1 0.000394723 
7947 1 -8.4758 9.86525 1.06211 1 0.00425784 
7948 1 -6.87842 8.09594 0.271908 1 0.00707439 
7950 1 -6.14206 9.8559 1.83207 1 0.040889 
8007 1 -4.49749 8.06882 1.04335 1 0.0610816 
8516 1 -4.23556 10.4299 0.259446 1 0.0609132 
8573 1 -3.8737 9.84194 2.5861 1 0.394598 
8574 1 -2.09538 8.02651 1.78227 5 3.44877 
8575 1 -1.8255 10.4486 1.11329 5 0.948894 
8578 1 -0.10174 8.62181 0.350529 5 5.61838 
10465 2 0.408062 10.3285 2.36018 5 6.74754 
10468 2 2.12225 9.71859 0.755586 5 1.92641 
11009 2 4.49876 9.10707 1.34272 1 0.0184965 
11011 2 6.89297 8.5148 1.87335 1 0.00382622 
11529 2 7.69121 10.2794 0.305183 1 0.00314789 
10045 2 8.48712 7.93124 0.0441565 1 0.00103848 
11530 2 10.0624 9.68442 0.828928 1 0.000453688 
11570 2 9.26845 7.9205 2.40009 1 0.000808789 
12089 2 12.4274 9.09353 1.35254 1 8.78135e-05 
12091 2 14.7899 8.50503 1.87673 1 1.87889e-05 
12609 2 15.5788 10.2649 0.302704 1 2.48404e-05 
12610 2 17.9392 9.67751 0.827153 1 4.49422e-06 
13169 2 20.2999 9.09055 1.35187 1 8.3618e-07 
13171 2 22.6609 8.50377 1.87671 1 1.77232e-07 
13689 2 23.4479 10.2638 0.302523 1 7.27887e-08 
171 4 -70.1267 12.8077 1.07433 5 24.7808 
173 4 -68.5525 11.0477 0.28723 5 6.1952 
430 4 -67.7654 12.8077 1.86142 1 9.00481e-16 
456 4 -66.1913 11.0477 1.07433 1 7.98982e-16 
459 4 -63.83 11.0477 1.86142 1 9.00481e-16 
846 4 -61.9934 11.6344 0.28723 1 3.22524e-09 
890 1 -59.6321 11.6344 1.07434 1 5.00377e-09 
1406 1 -57.2709 11.6344 1.86146 1 1.85922e-09 
1410 1 -55.4343 12.221 0.287287 1 6.37658e-09 
2067 1 -53.0731 12.2211 1.07438 1 3.62393e-09 
2070 1 -50.7118 12.2211 1.86147 1 5.31915e-09 
2668 1 -48.8753 12.8079 0.287277 1 5.64256e-09 
2727 1 -46.514 12.8079 1.07438 1 1.52122e-08 
2730 1 -44.9398 11.0479 0.287316 1 2.27712e-08 
3326 1 -44.1527 12.8079 1.86151 1 1.53915e-08 
3387 1 -42.5785 11.0479 1.07445 1 7.11257e-09 
3390 1 -40.2172 11.0477 1.86157 1 7.29173e-09 
3988 1 -38.3807 11.6343 0.287373 1 8.76265e-10 
4047 1 -36.0194 11.6341 1.07447 1 1.362e-09 
4646 1 -33.6582 11.634 1.86154 1 5.7889e-09 
4650 1 -31.8216 12.2206 0.287338 1 7.07905e-09 
5307 1 -29.4604 12.2205 1.07438 1 1.7621e-08 
5310 1 -27.0991 12.2205 1.86138 1 1.44733e-08 
5908 1 -25.2625 12.8072 0.287137 1 3.06932e-08 
5967 1 -22.9012 12.8072 1.07417 1 1.26755e-07 
5970 1 -21.3272 11.0473 0.286944 1 1.24516e-07 
6566 1 -20.5398 12.8072 1.8612 1 5.02624e-07 
6627 1 -18.9658 11.0473 1.07396 1 5.6697e-07 
6630 1 -16.6045 11.0471 1.86093 1 4.63381e-06 
7228 1 -14.7672 11.6336 0.287445 1 1.68507e-05 
7287 1 -12.405 11.6321 1.07488 1 0.000108498 
7886 1 -10.0435 11.6303 1.86272 1 0.00066262 
7890 1 -8.20041 12.2081 0.291591 1 0.00337976 
8515 1 -5.8274 12.1925 1.08108 1 0.0208034 
8518 1 -3.43904 12.1619 1.86332 5 0.683479 
8976 1 -1.49412 12.8339 0.544458 5 4.36901 
10466 2 1.34457 12.1493 1.07689 5 2.69452 
10970 2 3.70168 11.4499 1.60762 1 0.0297378 
10971 2 5.32973 13.1902 2.39894 1 0.00965657 
11007 2 6.09395 10.8529 2.13172 1 0.00211415 
11492 2 6.91783 12.6179 0.5711 1 0.00538875 
11527 2 9.28172 12.0286 1.09175 1 0.000976791 
12050 2 11.6435 11.439 1.61498 1 0.000211447 
12051 2 13.2175 13.1977 2.40147 1 4.12112e-05 
12087 2 14.0045 10.8511 2.13918 1 4.87239e-05 
12572 2 14.7918 12.6123 0.565178 1 2.53078e-05 
12607 2 17.1522 12.0245 1.08959 1 5.03871e-06 
11377 2 20.2994 13.1973 0.0399372 1 4.72974e-07 
13130 2 19.513 11.4374 1.61426 1 9.80984e-07 
13131 2 21.0868 13.1973 2.40139 1 2.09986e-07 
13167 2 21.8739 10.8505 2.13906 1 2.14231e-07 
13652 2 22.6607 12.6105 0.564828 1 1.41312e-07 
417 4 -69.8644 15.1544 0.28723 5 18.5856 
431 4 -67.5031 15.1544 1.07433 1 9.98983e-16 
434 4 -65.9289 13.3944 0.28723 1 6.00008e-16 
809 4 -65.1418 15.1544 1.86142 1 1.50048e-15 
813 4 -63.3052 15.7411 0.28723 1 5.00008e-16 
845 4 -63.5676 13.3944 1.07433 1 1.09898e-15 
848 4 -61.2063 13.3944 1.86142 1 9.99448e-09 
1352 4 -60.944 15.7411 1.07433 1 1.33584e-08 
1353 1 -59.3698 13.981 0.287256 1 6.72141e-09 
1355 1 -58.5827 15.741 1.86146 1 9.39925e-09 
1407 1 -57.0085 13.981 1.07438 1 4.05609e-09 
2006 1 -54.6472 13.981 1.86148 1 3.4099e-09 
2010 1 -52.8107 14.5678 0.287294 1 2.46051e-09 
2667 1 -50.4494 14.5678 1.07439 1 2.59492e-09 
2670 1 -48.0882 14.5679 1.86148 1 2.28847e-09 
3268 1 -46.2516 15.1546 0.28728 1 1.94573e-08 
3327 1 -43.8903 15.1546 1.07439 1 1.70509e-08 
3330 1 -42.3161 13.3945 0.287347 1 2.77954e-09 
3926 1 -41.529 15.1545 1.86154 1 4.77707e-09 
3930 1 -39.6925 15.741 0.287367 1 5.04894e-09 
3987 1 -39.9549 13.3944 1.07447 1 4.98678e-09 
3990 1 -37.5936 13.3942 1.86157 1 3.26015e-09 
4587 1 -37.3312 15.7409 1.07448 1 2.01429e-09 
4588 1 -35.7571 13.9808 0.287367 1 2.47244e-09 
4590 1 -34.97 15.7408 1.86156 1 3.97457e-09 
4647 1 -33.3958 13.9807 1.07445 1 4.6653e-09 
5246 1 -31.0345 13.9806 1.86152 1 1.39559e-08 
5250 1 -29.198 14.5672 0.287271 1 1.58223e-08 
5907 1 -26.8367 14.5671 1.07428 1 1.77299e-08 
5910 1 -24.4754 14.5672 1.8613 1 7.34827e-08 
6508 1 -22.6389 15.1539 0.287079 1 1.8202e-07 
6567 1 -20.2774 15.154 1.07408 1 5.85055e-07 
6570 1 -18.7032 13.394 0.28723 1 2.56788e-06 
7166 1 -17.9156 15.1539 1.86098 1 2.15717e-06 
7170 1 -16.0795 15.7407 0.286752 1 4.10674e-06 
7227 1 -16.3412 13.3937 1.07448 1 1.12644e-05 
7230 1 -13.9781 13.3932 1.86173 1 5.8781e-05 
7827 1 -13.7168 15.74 1.07285 1 2.02646e-05 
7828 1 -12.1421 13.9785 0.288005 1 9.54901e-05 
7830 1 -11.3537 15.739 1.8571 1 0.000183884 
7887 1 -9.7758 13.9754 1.07325 1 0.000488936 
8454 1 -7.40662 13.9708 1.85387 1 0.00383726 
8458 1 -5.56156 14.5485 0.27113 1 0.0134641 
8975 1 -3.14859 14.5477 1.0462 5 2.08995 
10440 2 0.485623 14.3584 1.20374 5 4.13472 
10969 2 2.96439 13.8003 1.87243 1 0.119943 
9807 2 4.56217 13.208 0.0550899 1 0.0512925 
10939 2 3.74637 15.5931 0.327524 1 0.0690296 
11491 2 6.12134 14.971 0.835545 1 0.00338709 
11493 2 8.49158 14.3755 1.35349 1 0.00045274 
12049 2 10.856 13.7858 1.87689 1 0.000140031 
10391 2 12.4318 13.2015 0.0413876 1 0.000116277 
12019 2 11.6422 15.5498 0.302931 1 0.000162806 
12571 2 14.0036 14.9599 0.827351 1 3.5396e-05 
12573 2 16.3646 14.3716 1.3519 1 6.94096e-06 
13099 2 19.5123 15.5441 0.302303 1 8.38416e-07 
13129 2 18.7257 13.7842 1.87659 1 1.21299e-06 
13651 2 21.8736 14.9572 0.827164 1 2.2361e-07 
419 4 -69.0773 16.9144 1.86142 5 12.3904 
786 4 -67.2407 17.5011 0.28723 1 3.00008e-16 
810 4 -64.8794 17.5011 1.07433 1 1.39898e-15 
1306 4 -62.5181 17.5011 1.86142 1 1.70682e-09 
1310 1 -60.6816 18.0877 0.287238 1 2.68894e-09 
1948 1 -58.3203 18.0877 1.07436 1 3.52937e-09 
1949 1 -56.7462 16.3277 0.287289 1 4.10168e-09 
1951 1 -55.9591 18.0877 1.86147 1 1.49651e-09 
2007 1 -54.3849 16.3277 1.07439 1 2.24499e-09 
2606 1 -52.0236 16.3278 1.86149 1 1.83139e-09 
2610 1 -50.1871 16.9145 0.287306 1 4.70216e-09 
3267 1 -47.8258 16.9146 1.0744 1 6.33302e-09 
3270 1 -45.4645 16.9146 1.86149 1 2.15779e-08 
3872 1 -43.628 17.5012 0.287306 1 1.14011e-08 
3927 1 -41.2667 17.5011 1.07444 1 4.75975e-09 
4529 1 -38.9054 17.501 1.86157 1 4.4149e-09 
4533 1 -37.0689 18.0875 0.287384 1 2.97915e-09 
5188 1 -34.7076 18.0874 1.07447 1 5.19661e-09 
5189 1 -33.1335 16.3273 0.287349 1 3.81543e-09 
5191 1 -32.3463 18.0873 1.86154 1 5.46862e-09 
5247 1 -30.7722 16.3272 1.07441 1 1.24233e-08 
5846 1 -28.4109 16.3271 1.86141 1 1.18471e-08 
5850 1 -26.5744 16.9138 0.287144 1 1.89899e-08 
6507 1 -24.2131 16.9139 1.07415 1 4.5736e-08 
6510 1 -21.8517 16.9139 1.86111 1 2.28905e-07 
7112 1 -20.0153 17.5007 0.286807 1 5.53856e-07 
7167 1 -17.6536 17.5006 1.07357 1 2.32615e-06 
7769 1 -15.2914 17.5003 1.85997 1 1.61234e-05 
7773 1 -13.4547 18.0868 0.285179 1 3.78667e-05 
8396 1 -11.0909 18.0846 1.06959 1 0.000306493 
8397 1 -9.51636 16.3236 0.276984 1 0.000993541 
8399 1 -8.72796 18.0815 1.8523 1 0.00222029 
8455 1 -7.15516 16.3175 1.04701 1 0.00825025 
8914 1 -4.82214 16.3089 1.8067 1 0.0728375 
8918 1 -2.85544 16.8925 0.220384 1 0.329457 
8973 1 -2.56975 16.3049 2.57761 5 4.54428 
9325 1 -0.420754 16.828 1.42242 5 7.21506 
10935 2 1.3312 18.4351 2.20779 5 4.31364 
10936 2 2.06789 16.1091 2.13024 1 0.318049 
10937 2 2.9172 17.908 0.508658 5 1.08547 
11462 2 5.32693 17.3248 1.07217 1 0.014255 
11489 2 7.69937 16.7237 1.60785 1 0.0016 
12016 2 10.0654 16.1326 2.13674 1 0.000233059 
12017 2 10.8516 17.8977 0.566679 1 0.000287302 
12542 2 13.2147 17.3072 1.09021 1 7.4041e-05 
12569 2 15.5768 16.7186 1.61441 1 1.65375e-05 
11314 2 16.3645 18.4781 0.0401016 1 5.05877e-06 
13095 2 17.1514 18.4776 2.40132 1 3.86141e-06 
13096 2 17.9383 16.1311 2.13897 1 3.3151e-06 
13097 2 18.7255 17.8908 0.564704 1 7.43301e-07 
13622 2 21.0867 17.3039 1.08951 1 1.25831e-07 
13649 2 23.4479 16.7171 1.61436 1 3.34398e-08 
770 4 -70.3891 21.0211 1.86142 5 30.976 
785 4 -68.8149 19.2611 1.07433 5 6.1952 
788 4 -66.4536 19.2611 1.86142 1 1.20048e-15 
1273 4 -64.6171 19.8477 0.28723 1 5.00009e-16 
1307 4 -62.2558 19.8477 1.07433 1 2.79688e-09 
1897 1 -59.8945 19.8477 1.86143 1 5.06405e-09 
1901 1 -58.058 20.4344 0.287256 1 3.38547e-09 
2555 1 -55.6967 20.4344 1.07437 1 2.369e-09 
2556 1 -54.1225 18.6744 0.28728 1 1.37213e-09 
2558 1 -53.3354 20.4344 1.86147 1 2.87088e-09 
2607 1 -51.7613 18.6744 1.07438 1 3.75696e-09 
3170 1 -51.4989 21.0211 0.287272 1 8.49868e-09 
3212 1 -49.4 18.6745 1.86149 1 3.87737e-09 
3213 1 -49.1376 21.0212 1.07438 1 2.30297e-09 
3216 1 -47.5634 19.2612 0.287312 1 7.34376e-09 
3824 1 -46.7764 21.0213 1.86148 1 1.43378e-08 
3871 1 -45.2022 19.2613 1.0744 1 2.62506e-08 
3874 1 -42.8409 19.2612 1.86152 1 3.08392e-09 
4483 1 -41.0043 19.8478 0.287359 1 4.95732e-09 
4530 1 -38.6431 19.8476 1.07447 1 2.29262e-09 
5137 1 -36.2818 19.8475 1.86157 1 2.15369e-09 
5141 1 -34.4453 20.4341 0.287373 1 3.95728e-09 
5795 1 -32.084 20.4339 1.07444 1 8.81387e-09 
5796 1 -30.5098 18.6739 0.287299 1 1.34471e-08 
5798 1 -29.7227 20.4338 1.86147 1 1.4258e-08 
5847 1 -28.1486 18.6738 1.07429 1 1.6419e-08 
6410 1 -27.8862 21.0205 0.287197 1 2.01287e-08 
6452 1 -25.7873 18.6738 1.86126 1 2.74015e-08 
6453 1 -25.525 21.0205 1.07417 1 2.89001e-08 
6456 1 -23.9508 19.2606 0.286982 1 9.75199e-08 
7064 1 -23.1637 21.0205 1.86115 1 9.2807e-08 
7111 1 -21.5896 19.2606 1.07391 1 2.81589e-07 
7114 1 -19.2283 19.2605 1.86072 1 1.14222e-06 
7723 1 -17.3918 19.8475 0.286438 1 2.34772e-06 
7770 1 -15.0304 19.847 1.07285 1 1.68853e-05 
8345 1 -12.6701 19.8459 1.85857 1 0.000152777 
8349 1 -10.8317 20.4308 0.282686 1 0.000394731 
8863 1 -8.4758 20.4252 1.06211 1 0.00425783 
8864 1 -6.87842 18.6559 0.271908 1 0.00707457 
8866 1 -6.14206 20.4159 1.83207 1 0.0408896 
8915 1 -4.49749 18.6288 1.04335 1 0.0610814 
9230 1 -4.23556 20.9899 0.259445 1 0.0609131 
9271 1 -3.8737 20.4019 2.5861 1 0.394584 
9272 1 -2.09538 18.5865 1.78227 5 3.44875 
9273 1 -1.8255 21.0086 1.11329 5 0.948894 
9276 1 -0.10174 19.1818 0.350529 5 5.61836 
10910 2 0.408064 20.8885 2.36018 5 6.74757 
10913 2 2.12225 20.2786 0.755586 5 1.92641 
11461 2 4.49876 19.6671 1.34272 1 0.0184969 
11463 2 6.89297 19.0748 1.87335 1 0.00382621 
11992 2 7.69121 20.8394 0.305183 1 0.00314785 
10328 2 8.48712 18.4912 0.044156 1 0.00103845 
11993 2 10.0624 20.2444 0.828928 1 0.000453714 
12015 2 9.26845 18.4805 2.40009 1 0.000808776 
12541 2 12.4274 19.6535 1.35254 1 8.78175e-05 
12543 2 14.7899 19.065 1.87673 1 1.87864e-05 
13072 2 15.5788 20.8249 0.302703 1 2.48333e-05 
13073 2 17.9392 20.2375 0.827153 1 4.49194e-06 
13621 2 20.2999 19.6505 1.35187 1 8.36813e-07 
13623 2 22.6609 19.0638 1.87671 1 1.77322e-07 
14152 2 23.4479 20.8238 0.302523 1 7.26696e-08 
771 4 -70.1267 23.3677 1.07433 5 24.7808 
773 4 -68.5525 21.6077 0.28723 5 6.1952 
1246 4 -67.7654 23.3677 1.86142 1 9.00481e-16 
1272 4 -66.1913 21.6077 1.07433 1 7.98982e-16 
1275 4 -63.83 21.6077 1.86142 1 9.00481e-16 
1859 4 -61.9934 22.1944 0.28723 1 3.24099e-09 
1898 1 -59.6321 22.1944 1.07434 1 5.00762e-09 
2512 1 -57.2709 22.1944 1.86146 1 1.84182e-09 
2516 1 -55.4343 22.781 0.287287 1 6.62751e-09 
3169 1 -53.0731 22.7811 1.07438 1 3.46369e-09 
3172 1 -50.7118 22.7811 1.86147 1 5.05768e-09 
3790 1 -48.8753 23.3679 0.287276 1 5.5623e-09 
3825 1 -46.514 23.3679 1.07438 1 1.5489e-08 
3828 1 -44.9398 21.6079 0.287317 1 2.29781e-08 
4443 1 -44.1527 23.3679 1.86151 1 1.58488e-08 
4482 1 -42.5785 21.6079 1.07445 1 7.01964e-09 
4485 1 -40.2172 21.6077 1.86157 1 6.9951e-09 
5099 1 -38.3807 22.1943 0.287373 1 9.07358e-10 
5138 1 -36.0194 22.1941 1.07447 1 1.42972e-09 
5752 1 -33.6582 22.194 1.86154 1 5.84303e-09 
5756 1 -31.8216 22.7806 0.287338 1 7.17993e-09 
6409 1 -29.4604 22.7805 1.07438 1 1.7585e-08 
6412 1 -27.0991 22.7805 1.86138 1 1.48484e-08 
7030 1 -25.2625 23.3672 0.287138 1 3.1051e-08 
7065 1 -22.9012 23.3672 1.07417 1 1.26692e-07 
7068 1 -21.3272 21.6073 0.286944 1 1.24437e-07 
7683 1 -20.5398 23.3672 1.8612 1 5.01944e-07 
7722 1 -18.9658 21.6073 1.07396 1 5.68041e-07 
7725 1 -16.6045 21.6071 1.86093 1 4.63132e-06 
8307 1 -14.7672 22.1936 0.287445 1 1.68508e-05 
8346 1 -12.405 22.1921 1.07488 1 0.000108495 
8820 1 -10.0435 22.1903 1.86272 1 0.000662616 
8824 1 -8.20041 22.7681 0.291591 1 0.00337973 
9229 1 -5.8274 22.7525 1.08108 1 0.0208037 
9232 1 -3.43904 22.7219 1.86332 5 0.683477 
9494 1 -1.49412 23.3939 0.544458 5 4.369 
10911 2 1.34457 22.7093 1.07689 5 2.69454 
11440 2 3.70168 22.0099 1.60762 1 0.0297376 
11441 2 5.32973 23.7502 2.39894 1 0.00965645 
11459 2 6.09395 21.4129 2.13172 1 0.0021141 
11973 2 6.91783 23.1779 0.5711 1 0.00538864 
11990 2 9.28172 22.5886 1.09175 1 0.000976804 
12520 2 11.6435 21.999 1.61498 1 0.000211416 
12521 2 13.2175 23.7577 2.40147 1 4.12168e-05 
12539 2 14.0045 21.4111 2.13918 1 4.87179e-05 
13053 2 14.7918 23.1723 0.565178 1 2.53058e-05 
13070 2 17.1522 22.5845 1.08959 1 5.03829e-06 
11832 2 20.2994 23.7573 0.0399374 1 4.72786e-07 
13600 2 19.513 21.9974 1.61426 1 9.79928e-07 
13601 2 21.0868 23.7573 2.40139 1 2.1055e-07 
13619 2 21.8739 21.4105 2.13906 1 2.13162e-07 
14133 2 22.6607 23.1705 0.564828 1 1.41744e-07 
1233 4 -69.8644 25.7144 0.28723 5 18.5856 
1247 4 -67.5031 25.7144 1.07433 1 9.98983e-16 
1250 4 -65.9289 23.9544 0.28723 1 6.00008e-16 
1827 4 -65.1418 25.7144 1.86142 1 1.50048e-15 
1831 4 -63.3052 26.3011 0.28723 1 5.00008e-16 
1858 4 -63.5676 23.9544 1.07433 1 1.09898e-15 
1861 4 -61.2063 23.9544 1.86142 1 1.00345e-08 
2481 4 -60.944 26.3011 1.07433 1 1.34935e-08 
2482 1 -59.3698 24.541 0.287257 1 6.67669e-09 
2484 1 -58.5827 26.301 1.86146 1 9.39583e-09 
2513 1 -57.0085 24.541 1.07438 1 4.05999e-09 
3134 1 -54.6472 24.541 1.86148 1 3.45549e-09 
3138 1 -52.8107 25.1278 0.287294 1 2.43472e-09 
3789 1 -50.4494 25.1278 1.07439 1 2.50389e-09 
3792 1 -48.0882 25.1279 1.86148 1 2.2258e-09 
4417 1 -46.2516 25.7146 0.28728 1 1.94568e-08 
4444 1 -43.8903 25.7146 1.07439 1 1.67151e-08 
4447 1 -42.3161 23.9545 0.287347 1 2.88442e-09 
5067 1 -41.529 25.7145 1.86154 1 4.71003e-09 
5071 1 -39.6925 26.301 0.287367 1 5.30164e-09 
5098 1 -39.9549 23.9544 1.07447 1 5.13207e-09 
5101 1 -37.5936 23.9542 1.86157 1 3.14426e-09 
5721 1 -37.3312 26.3009 1.07448 1 2.02696e-09 
5722 1 -35.7571 24.5408 0.287367 1 2.4581e-09 
5724 1 -34.97 26.3008 1.86157 1 3.9684e-09 
5753 1 -33.3958 24.5407 1.07445 1 4.79826e-09 
6374 1 -31.0345 24.5406 1.86152 1 1.39375e-08 
6378 1 -29.198 25.1272 0.287271 1 1.59598e-08 
7029 1 -26.8367 25.1271 1.07428 1 1.7599e-08 
7032 1 -24.4754 25.1272 1.8613 1 7.35866e-08 
7657 1 -22.6389 25.7139 0.287079 1 1.81944e-07 
7684 1 -20.2774 25.714 1.07408 1 5.85409e-07 
7687 1 -18.7032 23.954 0.287229 1 2.5667e-06 
8275 1 -17.9156 25.7139 1.86098 1 2.15692e-06 
8279 1 -16.0795 26.3007 0.286752 1 4.10711e-06 
8306 1 -16.3412 23.9537 1.07448 1 1.12575e-05 
8309 1 -13.9781 23.9532 1.86173 1 5.87695e-05 
8789 1 -13.7168 26.3 1.07285 1 2.02645e-05 
8790 1 -12.1421 24.5385 0.288005 1 9.55046e-05 
8792 1 -11.3537 26.299 1.8571 1 0.000183878 
8821 1 -9.7758 24.5354 1.07325 1 0.000488932 
9194 1 -7.40662 24.5308 1.85387 1 0.00383725 
9198 1 -5.56156 25.1085 0.27113 1 0.0134641 
9493 1 -3.14859 25.1077 1.0462 5 2.08995 
10899 2 0.485623 24.9184 1.20375 5 4.13472 
11439 2 2.96439 24.3603 1.87243 1 0.119942 
9949 2 4.56217 23.768 0.0550898 1 0.0512922 
11427 2 3.74637 26.1531 0.327524 1 0.0690299 
11972 2 6.12134 25.531 0.835545 1 0.00338719 
11974 2 8.49158 24.9355 1.35349 1 0.000452739 
12519 2 10.856 24.3458 1.87689 1 0.000140024 
10770 2 12.4318 23.7615 0.0413873 1 0.000116293 
12507 2 11.6422 26.1098 0.302931 1 0.000162797 
13052 2 14.0036 25.5199 0.827351 1 3.53972e-05 
13054 2 16.3646 24.9316 1.3519 1 6.94247e-06 
13587 2 19.5123 26.1041 0.302303 1 8.38243e-07 
13599 2 18.7257 24.3442 1.87659 1 1.21337e-06 
14132 2 21.8736 25.5172 0.827164 1 2.23594e-07 
1235 4 -69.0773 27.4744 1.86142 5 12.3904 
1809 4 -67.2407 28.0611 0.28723 1 3.00008e-16 
1828 4 -64.8794 28.0611 1.07433 1 1.39898e-15 
2458 4 -62.5181 28.0611 1.86142 1 1.69782e-09 
2462 1 -60.6816 28.6477 0.287238 1 2.69842e-09 
3111 1 -58.3203 28.6477 1.07436 1 3.59e-09 
3112 1 -56.7462 26.8877 0.287289 1 4.12637e-09 
3114 1 -55.9591 28.6477 1.86147 1 1.51833e-09 
3135 1 -54.3849 26.8877 1.07439 1 2.18381e-09 
3762 1 -52.0236 26.8878 1.86149 1 1.89635e-09 
3766 1 -50.1871 27.4745 0.287307 1 4.91147e-09 
4416 1 -47.8258 27.4746 1.0744 1 6.4e-09 
4419 1 -45.4645 27.4746 1.86149 1 2.18284e-08 
5049 1 -43.628 28.0612 0.287306 1 1.15792e-08 
5068 1 -41.2667 28.0611 1.07444 1 4.7303e-09 
5698 1 -38.9054 28.061 1.86157 1 4.41169e-09 
5702 1 -37.0689 28.6475 0.287384 1 2.89639e-09 
6351 1 -34.7076 28.6474 1.07447 1 5.10947e-09 
6352 1 -33.1335 26.8873 0.287349 1 3.71835e-09 
6354 1 -32.3463 28.6473 1.86154 1 5.44534e-09 
6375 1 -30.7722 26.8872 1.07441 1 1.24109e-08 
7002 1 -28.4109 26.8871 1.86141 1 1.19408e-08 
7006 1 -26.5744 27.4738 0.287143 1 1.887e-08 
7656 1 -24.2131 27.4739 1.07415 1 4.6002e-08 
7659 1 -21.8517 27.4739 1.86111 1 2.291e-07 
8257 1 -20.0153 28.0607 0.286807 1 5.54571e-07 
8276 1 -17.6536 28.0606 1.07357 1 2.32654e-06 
8766 1 -15.2914 28.0603 1.85997 1 1.61256e-05 
8770 1 -13.4547 28.6468 0.285178 1 3.78663e-05 
9171 1 -11.0909 28.6446 1.06959 1 0.000306472 
9172 1 -9.51636 26.8836 0.276985 1 0.000993525 
9174 1 -8.72796 28.6415 1.8523 1 0.0022203 
9195 1 -7.15516 26.8775 1.04701 1 0.00825029 
9466 1 -4.82214 26.8689 1.8067 1 0.0728357 
9470 1 -2.85544 27.4525 0.220385 1 0.329455 
9491 1 -2.56975 26.8649 2.57761 5 4.54427 
9654 1 -0.420755 27.388 1.42242 5 7.21507 
11423 2 1.3312 28.9951 2.20779 5 4.31364 
11424 2 2.06789 26.6691 2.13024 1 0.318049 
11425 2 2.9172 28.468 0.508659 5 1.08547 
11961 2 5.32693 27.8848 1.07217 1 0.0142552 
11970 2 7.69937 27.2837 1.60785 1 0.00160007 
12504 2 10.0654 26.6926 2.13674 1 0.000233082 
12505 2 10.8516 28.4577 0.566679 1 0.000287302 
13041 2 13.2147 27.8672 1.09021 1 7.40402e-05 
13050 2 15.5768 27.2786 1.61441 1 1.65422e-05 
11733 2 16.3645 29.0381 0.0401019 1 5.05789e-06 
13583 2 17.1514 29.0376 2.40132 1 3.86031e-06 
13584 2 17.9383 26.6911 2.13897 1 3.31566e-06 
13585 2 18.7255 28.4508 0.564704 1 7.43221e-07 
14121 2 21.0867 27.8639 1.08951 1 1.26009e-07 
14130 2 23.4479 27.2771 1.61436 1 3.35802e-08 
1801 4 -70.3891 31.5811 1.86142 5 30.976 
1808 4 -68.8149 29.8211 1.07433 5 6.1952 
1811 4 -66.4536 29.8211 1.86142 1 1.20034e-15 
2450 4 -64.6171 30.4077 0.28723 1 5.00009e-16 
2459 4 -62.2558 30.4077 1.07433 1 2.78513e-09 
3098 1 -59.8945 30.4077 1.86143 1 5.00124e-09 
3100 1 -58.058 30.9944 0.287257 1 3.58194e-09 
3747 1 -55.6967 30.9944 1.07437 1 2.23206e-09 
3748 1 -54.1225 29.2344 0.28728 1 1.33405e-09 
3750 1 -53.3354 30.9944 1.86147 1 2.88387e-09 
3763 1 -51.7613 29.2344 1.07438 1 3.82609e-09 
4393 1 -51.4989 31.5811 0.287273 1 8.27275e-09 
4397 1 -49.4 29.2345 1.86149 1 3.75782e-09 
4398 1 -49.1376 31.5812 1.07438 1 2.20531e-09 
4401 1 -47.5634 29.8212 0.287312 1 7.38532e-09 
5041 1 -46.7764 31.5813 1.86148 1 1.43183e-08 
5048 1 -45.2022 29.8213 1.0744 1 2.61177e-08 
5051 1 -42.8409 29.8212 1.86152 1 3.10903e-09 
5690 1 -41.0043 30.4078 0.287359 1 5.06866e-09 
5699 1 -38.6431 30.4076 1.07447 1 2.35133e-09 
6338 1 -36.2818 30.4075 1.86157 1 2.13691e-09 
6340 1 -34.4453 30.9941 0.287373 1 3.94706e-09 
6987 1 -32.084 30.9939 1.07444 1 8.81323e-09 
6988 1 -30.5098 29.2339 0.287299 1 1.35613e-08 
6990 1 -29.7227 30.9938 1.86147 1 1.41542e-08 
7003 1 -28.1486 29.2338 1.07429 1 1.63412e-08 
7633 1 -27.8862 31.5805 0.287197 1 2.04505e-08 
7637 1 -25.7873 29.2338 1.86126 1 2.77387e-08 
7638 1 -25.525 31.5805 1.07417 1 2.92877e-08 
7641 1 -23.9508 29.8206 0.286982 1 9.82791e-08 
8249 1 -23.1637 31.5805 1.86115 1 9.31822e-08 
8256 1 -21.5896 29.8206 1.07391 1 2.82372e-07 
8259 1 -19.2283 29.8205 1.86072 1 1.14454e-06 
8758 1 -17.3918 30.4075 0.286439 1 2.34504e-06 
8767 1 -15.0304 30.407 1.07285 1 1.68846e-05 
9158 1 -12.6701 30.4059 1.85857 1 0.000152763 