ITEM: TIMESTEP
0
ITEM: NUMBER OF ATOMS
18228
ITEM: BOX BOUNDS ss pp pp
-72.8059 121.29
0 33.3937
0 30.6866
ITEM: ATOMS id type x y z c_cna c_csd 
17 4 -71.7844 0.41376 0.661242 5 18.5856 
97 4 -70.1245 2.08344 1.46879 1 9.99061e-16 
100 4 -67.6985 1.52688 1.46879 1 9.99181e-16 
265 4 -65.2725 0.970321 1.46879 1 1.49379e-09 
268 1 -62.8465 0.413788 1.46876 1 7.87081e-09 
491 1 -61.1866 2.08351 2.27626 1 1.31358e-09 
514 1 -58.7606 1.52702 2.27617 1 5.32588e-09 
812 1 -56.3346 0.970513 2.27603 1 3.80715e-09 
833 1 -53.9086 0.413979 2.27585 1 2.61434e-09 
834 1 -54.8024 2.08365 0.660819 1 1.71901e-09 
836 1 -52.3764 1.52713 0.660643 1 3.45305e-09 
1230 1 -49.9504 0.970601 0.660434 1 2.36731e-09 
1232 1 -47.5244 0.414088 0.660215 1 3.74357e-09 
1670 1 -45.8645 2.08381 1.46763 1 6.58573e-09 
1688 1 -43.4386 1.52731 1.46747 1 1.90089e-09 
2127 1 -41.0126 0.970816 1.46734 1 7.43419e-09 
2144 1 -38.5866 0.414297 1.46715 1 1.28915e-08 
2586 1 -36.9267 2.08399 2.27454 1 7.49436e-09 
2589 1 -34.5008 1.52742 2.27431 1 1.14767e-08 
3044 1 -32.0748 0.970835 2.27404 1 2.03374e-08 
3045 1 -30.5427 2.08395 0.658781 1 4.43156e-08 
3047 1 -29.6488 0.414229 2.27381 1 4.74419e-08 
3059 1 -28.1168 1.52737 0.658529 1 1.1647e-07 
3502 1 -25.691 0.970802 0.658276 1 2.83031e-07 
3515 1 -23.2653 0.414244 0.657986 1 6.88101e-07 
3961 1 -21.6054 2.08386 1.46537 1 8.65298e-07 
3964 1 -19.1799 1.52726 1.46506 1 2.1378e-06 
4417 1 -16.7546 0.970668 1.46477 1 4.90309e-06 
4420 1 -14.3296 0.41408 1.46453 1 1.06634e-05 
4853 1 -12.6695 2.08352 2.27217 1 2.13139e-05 
4876 1 -10.2452 1.52679 2.27214 1 6.53538e-05 
5312 1 -7.82219 0.969672 2.27214 1 0.000291423 
5333 1 -5.40203 0.408227 2.26875 1 0.00317714 
5334 1 -6.2961 2.0863 0.657834 1 0.000859218 
5336 1 -3.87871 1.53851 0.658981 1 0.0158625 
5777 1 -1.50641 0.95852 0.632898 5 2.67424 
6829 2 0.479446 1.59 1.67085 5 6.60561 
6830 2 1.85553 0.416511 0.095045 5 1.4066 
6852 2 2.84966 2.08676 1.72387 1 0.080585 
6854 2 4.4683 0.418596 2.52874 1 0.00504617 
6868 2 4.33234 0.976736 0.0946111 1 0.0153181 
6870 2 6.76816 1.53236 0.0954053 1 0.000505727 
6991 2 6.89202 0.976723 2.5197 1 0.000389654 
6994 2 9.31486 1.53379 2.51853 1 5.28717e-05 
7029 2 10.8497 0.420725 0.902278 1 3.19041e-05 
7030 2 9.19204 2.09024 0.0950368 1 2.44545e-05 
7239 2 13.2737 0.977064 0.901615 1 1.41877e-05 
7241 2 11.7395 2.09004 2.51754 1 1.63925e-05 
7279 2 15.6984 1.53355 0.90105 1 6.35785e-06 
7562 2 18.1236 2.0901 0.900613 1 2.83106e-06 
7564 2 19.7826 0.42038 1.70798 1 1.03006e-06 
7962 2 22.2084 0.977005 1.70766 1 4.29272e-07 
11 4 -72.5505 2.64 1.46879 5 30.976 
74 4 -70.8906 4.30969 2.27633 5 6.1952 
99 4 -68.4646 3.75313 2.27633 1 3e-16 
103 4 -66.9324 4.86625 0.661242 1 1.1016e-15 
243 4 -66.0386 3.19656 2.27633 1 4.09111e-22 
267 4 -63.6126 2.64 2.27633 1 2.21048e-08 
269 4 -64.5064 4.30969 0.661242 1 5.33971e-09 
271 1 -62.0804 3.75317 0.661203 1 5.22349e-09 
515 1 -59.6544 3.19667 0.661118 1 2.5102e-09 
516 1 -57.9945 4.8664 1.46859 1 9.73548e-09 
517 1 -57.2284 2.64018 0.660995 1 8.68242e-09 
815 1 -55.5685 4.30989 1.46842 1 3.69189e-09 
835 1 -53.1425 3.75336 1.46824 1 1.79297e-09 
1212 1 -50.7165 3.19683 1.46804 1 5.20546e-09 
1218 1 -49.0566 4.86655 2.27544 1 2.25154e-09 
1231 1 -48.2905 2.64032 1.46782 1 4.65482e-09 
1673 1 -46.6307 4.31005 2.27524 1 2.14075e-09 
1676 1 -44.2047 3.75354 2.27506 1 6.74976e-09 
1690 1 -42.6725 4.8667 0.65989 1 2.05183e-09 
2129 1 -41.7787 3.19704 2.27493 1 8.08284e-09 
2130 1 -40.2465 4.31019 0.65974 1 1.06715e-08 
2132 1 -39.3527 2.64053 2.27476 1 1.73261e-08 
2146 1 -37.8205 3.75366 0.659524 1 7.86755e-09 
2587 1 -35.3946 3.19711 0.659298 1 1.56321e-08 
2593 1 -33.7347 4.86679 1.46667 1 2.14207e-08 
2602 1 -32.9686 2.64054 0.659053 1 2.45627e-08 
3048 1 -31.3087 4.3102 1.46641 1 3.58735e-08 
3051 1 -28.8828 3.7536 1.46616 1 6.81428e-08 
3504 1 -26.457 3.19702 1.46592 1 1.53255e-07 
3506 1 -24.797 4.86666 2.27332 1 1.94952e-07 
3507 1 -24.0312 2.64044 1.46566 1 3.9328e-07 
3938 1 -22.3712 4.31006 2.27304 1 4.53914e-07 
3963 1 -19.9455 3.75344 2.27276 1 1.10576e-06 
3967 1 -18.4143 4.86671 0.657325 1 3.54877e-06 
4395 1 -17.5199 3.19681 2.27248 1 2.83837e-06 
4419 1 -15.0945 2.64016 2.27227 1 7.56255e-06 
4421 1 -15.9893 4.31017 0.657006 1 7.68489e-06 
4423 1 -13.5647 3.75366 0.656739 1 1.65507e-05 
4877 1 -11.1407 3.19723 0.656598 1 3.4631e-05 
4878 1 -9.48077 4.86628 1.46449 1 3.25729e-05 
4879 1 -8.71774 2.64094 0.656426 1 8.8767e-05 
5315 1 -7.05589 4.3082 1.46415 1 0.00046806 
5335 1 -4.6214 3.74982 1.46757 1 0.0139088 
5765 1 -2.14323 3.19594 1.46025 5 1.39681 
5771 1 -0.457485 4.88183 2.39195 5 9.02806 
6831 2 1.22087 3.74758 0.921383 5 3.96294 
6871 2 3.59013 4.32847 0.901792 1 0.0165464 
6869 2 5.24381 2.64932 1.71172 1 0.00428186 
6874 2 6.004 4.87722 0.903594 1 0.00101736 
6992 2 7.65969 3.20484 1.71162 1 0.000286947 
7031 2 10.0826 3.76013 1.71046 1 4.78647e-05 
7032 2 11.6158 2.64674 0.0942642 1 1.69628e-05 
7242 2 12.5068 4.31639 1.70957 1 1.55581e-05 
7244 2 14.1647 2.6465 2.51672 1 5.83276e-06 
7280 2 14.04 3.20324 0.0936942 1 1.13338e-05 
7281 2 14.9318 4.87285 1.70889 1 6.10584e-06 
7282 2 16.4648 3.75979 0.0932201 1 6.06115e-06 
7565 2 16.5903 3.20306 2.5161 1 2.21055e-06 
7568 2 19.0161 3.75966 2.51567 1 8.92135e-07 
7602 2 18.8899 4.31635 0.0928743 1 2.8957e-06 
7601 2 20.549 2.64667 0.90028 1 1.22141e-06 
7604 2 21.3153 4.87294 0.0925907 1 1.35116e-06 
7966 2 21.4419 4.31629 2.51532 1 3.76473e-07 
7963 2 22.9747 3.20329 0.899999 1 5.28248e-07 
7969 2 23.8679 4.87296 2.51502 1 1.66634e-07 
13 4 -71.7844 5.97937 0.661242 5 18.5856 
78 4 -70.1245 7.64905 1.46879 1 9.99121e-16 
101 4 -69.3584 5.42281 0.661242 1 9.01602e-16 
102 4 -67.6985 7.09249 1.46879 1 7.99121e-16 
247 4 -65.2725 6.53593 1.46879 1 1.49394e-09 
270 1 -62.8465 5.9794 1.46876 1 7.87043e-09 
495 1 -60.4205 5.4229 1.46869 1 2.20089e-09 
498 1 -61.1866 7.64912 2.27626 1 1.31363e-09 
501 1 -58.7606 7.09263 2.27617 1 5.3259e-09 
818 1 -56.3346 6.53612 2.27603 1 3.80717e-09 
819 1 -54.8024 7.64926 0.660819 1 1.71901e-09 
821 1 -53.9086 5.97959 2.27585 1 2.61433e-09 
838 1 -52.3764 7.09274 0.660643 1 3.45305e-09 
1215 1 -51.4826 5.42306 2.27566 1 2.15191e-09 
1216 1 -49.9504 6.53621 0.660434 1 2.36732e-09 
1234 1 -47.5244 5.9797 0.660215 1 3.74357e-09 
1674 1 -45.0985 5.42318 0.660026 1 8.04287e-09 
1677 1 -45.8645 7.64942 1.46763 1 6.58572e-09 
1680 1 -43.4386 7.09292 1.46747 1 1.90088e-09 
2133 1 -41.0126 6.53642 1.46734 1 7.4342e-09 
2136 1 -38.5866 5.97991 1.46715 1 1.28915e-08 
2563 1 -36.9267 7.6496 2.27454 1 7.49436e-09 
2590 1 -36.1607 5.42335 1.46692 1 1.38895e-08 
2592 1 -34.5008 7.09303 2.27431 1 1.14767e-08 
3022 1 -32.0748 6.53644 2.27404 1 2.03374e-08 
3050 1 -29.6488 5.97984 2.27381 1 4.74419e-08 
3052 1 -30.5427 7.64956 0.658781 1 4.43156e-08 
3054 1 -28.1168 7.09298 0.658529 1 1.1647e-07 
3480 1 -27.2229 5.42324 2.27355 1 7.15372e-08 
3508 1 -25.691 6.53641 0.658276 1 2.83031e-07 
3510 1 -23.2653 5.97985 0.657986 1 6.88101e-07 
3942 1 -21.6054 7.64947 1.46537 1 8.65298e-07 
3965 1 -20.8397 5.42328 0.657661 1 1.54647e-06 
3966 1 -19.1799 7.09287 1.46506 1 2.1378e-06 
4399 1 -16.7546 6.53628 1.46477 1 4.90309e-06 
4422 1 -14.3296 5.97969 1.46453 1 1.06634e-05 
4857 1 -11.905 5.42308 1.46441 1 2.00194e-05 
4860 1 -12.6695 7.64912 2.27217 1 2.13139e-05 
4863 1 -10.2452 7.09239 2.27214 1 6.53538e-05 
5318 1 -7.82219 6.53528 2.27214 1 0.000291423 
5319 1 -6.2961 7.65191 0.657834 1 0.000859218 
5321 1 -5.40203 5.97384 2.26875 1 0.00317714 
5338 1 -3.87871 7.10412 0.658981 1 0.0158625 
5768 1 -2.97498 5.41594 2.26383 1 0.0462151 
5769 1 -1.50641 6.52413 0.632898 5 2.67424 
6832 2 0.479446 7.15561 1.67085 5 6.60561 
6833 2 1.85553 5.98212 0.095045 5 1.4066 
6856 2 2.03853 5.42662 2.52481 1 0.0543392 
6875 2 2.84966 7.65237 1.72387 1 0.080585 
6872 2 4.33234 6.54235 0.0946111 1 0.0153181 
6873 2 4.4683 5.98421 2.52874 1 0.00504617 
6896 2 6.76816 7.09797 0.0954053 1 0.000505727 
6996 2 6.89202 6.54233 2.5197 1 0.000389654 
7033 2 8.42683 5.43017 0.902809 1 9.53739e-05 
7034 2 9.19204 7.65585 0.0950368 1 2.44545e-05 
7035 2 9.31486 7.0994 2.51853 1 5.28717e-05 
7036 2 10.8497 5.98633 0.902278 1 3.19041e-05 
7246 2 11.7395 7.65565 2.51754 1 1.63925e-05 
7283 2 13.2737 6.54267 0.901615 1 1.41877e-05 
7286 2 15.6984 7.09916 0.90105 1 6.35785e-06 
7566 2 17.3571 5.42941 1.70836 1 2.52255e-06 
7605 2 18.1236 7.6557 0.900613 1 2.83106e-06 
7603 2 19.7826 5.98599 1.70798 1 1.03006e-06 
7967 2 22.2084 6.54261 1.70766 1 4.29272e-07 
8003 2 23.7409 5.42957 0.0923296 1 5.80051e-07 
12 4 -72.5505 8.20561 1.46879 5 30.976 
81 4 -70.8906 9.8753 2.27633 5 6.1952 
84 4 -68.4646 9.31873 2.27633 1 4.08108e-22 
250 4 -66.0386 8.76217 2.27633 1 3e-16 
251 4 -64.5064 9.8753 0.661242 1 5.3411e-09 
253 4 -63.6126 8.20561 2.27633 1 2.21063e-08 
273 1 -62.0804 9.31878 0.661203 1 5.2243e-09 
499 1 -59.6544 8.76228 0.661118 1 2.51017e-09 
519 1 -57.2284 8.20579 0.660995 1 8.68239e-09 
822 1 -55.5685 9.8755 1.46842 1 3.69188e-09 
825 1 -53.1425 9.31897 1.46824 1 1.79296e-09 
1219 1 -50.7165 8.76244 1.46804 1 5.20544e-09 
1222 1 -48.2905 8.20593 1.46782 1 4.65482e-09 
1647 1 -46.6307 9.87566 2.27524 1 2.14074e-09 
1679 1 -44.2047 9.31915 2.27506 1 6.74973e-09 
2105 1 -41.7787 8.76265 2.27493 1 8.08288e-09 
2137 1 -40.2465 9.8758 0.65974 1 1.06714e-08 
2135 1 -39.3527 8.20614 2.27476 1 1.73262e-08 
2139 1 -37.8205 9.31927 0.659524 1 7.86755e-09 
2594 1 -35.3946 8.76272 0.659298 1 1.56321e-08 
2596 1 -32.9686 8.20614 0.659053 1 2.45628e-08 
3026 1 -31.3087 9.87581 1.46641 1 3.58734e-08 
3053 1 -28.8828 9.31921 1.46616 1 6.81428e-08 
3484 1 -26.457 8.76263 1.46592 1 1.53255e-07 
3509 1 -24.0312 8.20605 1.46566 1 3.9328e-07 
3945 1 -22.3712 9.87567 2.27304 1 4.53914e-07 
3948 1 -19.9455 9.31905 2.27276 1 1.10576e-06 
4402 1 -17.5199 8.76241 2.27248 1 2.83837e-06 
4403 1 -15.9893 9.87578 0.657006 1 7.68489e-06 
4405 1 -15.0945 8.20577 2.27227 1 7.56255e-06 
4425 1 -13.5647 9.31927 0.656739 1 1.65507e-05 
4861 1 -11.1407 8.76284 0.656598 1 3.4631e-05 
4881 1 -8.71774 8.20655 0.656426 1 8.8767e-05 
5322 1 -7.05589 9.87381 1.46415 1 0.00046806 
5325 1 -4.6214 9.31543 1.46757 1 0.0139088 
5772 1 -2.14323 8.76155 1.46025 5 1.39681 
6834 2 1.22087 9.31319 0.921383 5 3.96294 
6876 2 3.59013 9.89407 0.901792 1 0.0165464 
6878 2 5.24381 8.21492 1.71172 1 0.00428186 
7037 2 7.65969 8.77045 1.71162 1 0.000286947 
7040 2 10.0826 9.32573 1.71046 1 4.78647e-05 
7067 2 11.6158 8.21235 0.0942642 1 1.69628e-05 
7287 2 12.5068 9.882 1.70957 1 1.55581e-05 
7284 2 14.04 8.76885 0.0936942 1 1.13338e-05 
7285 2 14.1647 8.21211 2.51672 1 5.83276e-06 
7315 2 16.4648 9.3254 0.0932201 1 6.06115e-06 
7570 2 16.5903 8.76867 2.5161 1 2.21055e-06 
7606 2 18.8899 9.88196 0.0928743 1 2.8957e-06 
7607 2 19.0161 9.32527 2.51567 1 8.92135e-07 
7608 2 20.549 8.21228 0.90028 1 1.22141e-06 
7971 2 21.4419 9.8819 2.51532 1 3.76473e-07 
8006 2 22.9747 8.7689 0.899999 1 5.28248e-07 
14 4 -71.7844 11.545 0.661242 5 18.5856 
82 4 -69.3584 10.9884 0.661242 1 1.1016e-15 
88 4 -67.6985 12.6581 1.46879 1 5.99121e-16 
105 4 -66.9324 10.4319 0.661242 1 1.1016e-15 
254 4 -65.2725 12.1015 1.46879 1 1.49416e-09 
257 1 -62.8465 11.545 1.46876 1 7.86997e-09 
502 1 -60.4205 10.9885 1.46869 1 2.20099e-09 
504 1 -58.7606 12.6582 2.27617 1 5.32592e-09 
505 1 -57.9945 10.432 1.46859 1 9.73543e-09 
790 1 -56.3346 12.1017 2.27603 1 3.80715e-09 
824 1 -53.9086 11.5452 2.27585 1 2.61434e-09 
828 1 -52.3764 12.6583 0.660643 1 3.45305e-09 
1188 1 -51.4826 10.9887 2.27566 1 2.15191e-09 
1223 1 -49.9504 12.1018 0.660434 1 2.3673e-09 
1221 1 -49.0566 10.4322 2.27544 1 2.25153e-09 
1225 1 -47.5244 11.5453 0.660215 1 3.74356e-09 
1681 1 -45.0985 10.9888 0.660026 1 8.04284e-09 
1682 1 -43.4386 12.6585 1.46747 1 1.90089e-09 
1683 1 -42.6725 10.4323 0.65989 1 2.05182e-09 
2109 1 -41.0126 12.102 1.46734 1 7.43419e-09 
2138 1 -38.5866 11.5455 1.46715 1 1.28915e-08 
2567 1 -36.1607 10.989 1.46692 1 1.38895e-08 
2573 1 -34.5008 12.6586 2.27431 1 1.14766e-08 
2595 1 -33.7347 10.4324 1.46667 1 2.14207e-08 
3029 1 -32.0748 12.1021 2.27404 1 2.03374e-08 
3032 1 -29.6488 11.5454 2.27381 1 4.74419e-08 
3056 1 -28.1168 12.6586 0.658529 1 1.1647e-07 
3487 1 -27.2229 10.9889 2.27355 1 7.15372e-08 
3488 1 -25.691 12.102 0.658276 1 2.83031e-07 
3490 1 -24.797 10.4323 2.27332 1 1.94952e-07 
3512 1 -23.2653 11.5455 0.657986 1 6.88101e-07 
3946 1 -20.8397 10.9889 0.657661 1 1.54647e-06 
3952 1 -19.1799 12.6585 1.46506 1 2.1378e-06 
3969 1 -18.4143 10.4323 0.657325 1 3.54877e-06 
4406 1 -16.7546 12.1019 1.46477 1 4.90309e-06 
4409 1 -14.3296 11.5453 1.46453 1 1.06634e-05 
4864 1 -11.905 10.9887 1.46441 1 2.00194e-05 
4866 1 -10.2452 12.658 2.27214 1 6.53538e-05 
4867 1 -9.48077 10.4319 1.46449 1 3.25729e-05 
5290 1 -7.82219 12.1009 2.27214 1 0.000291423 
5324 1 -5.40203 11.5394 2.26875 1 0.00317714 
5328 1 -3.87871 12.6697 0.658981 1 0.0158625 
5747 1 -2.97498 10.9815 2.26383 1 0.0462151 
5775 1 -1.50641 12.0897 0.632898 5 2.67424 
5774 1 -0.457485 10.4474 2.39195 5 9.02806 
6835 2 0.479446 12.7212 1.67085 5 6.60561 
6836 2 1.85553 11.5477 0.095045 5 1.4066 
6879 2 2.03853 10.9922 2.52481 1 0.0543392 
6882 2 4.4683 11.5498 2.52874 1 0.00504617 
6897 2 6.004 10.4428 0.903594 1 0.00101736 
6898 2 4.33234 12.108 0.0946111 1 0.0153181 
6900 2 6.76816 12.6636 0.0954053 1 0.000505727 
7038 2 8.42683 10.9958 0.902809 1 9.53739e-05 
7041 2 6.89202 12.1079 2.5197 1 0.000389654 
7044 2 9.31486 12.665 2.51853 1 5.28717e-05 
7068 2 10.8497 11.5519 0.902278 1 3.19041e-05 
7288 2 13.2737 12.1083 0.901615 1 1.41877e-05 
7290 2 14.9318 10.4385 1.70889 1 6.10584e-06 
7316 2 15.6984 12.6648 0.90105 1 6.35785e-06 
7609 2 17.3571 10.995 1.70836 1 2.52255e-06 
7612 2 19.7826 11.5516 1.70798 1 1.03006e-06 
7636 2 21.3153 10.4386 0.0925907 1 1.35116e-06 
8007 2 23.7409 10.9952 0.0923296 1 5.80051e-07 
8008 2 23.8679 10.4386 2.51502 1 1.66634e-07 
8010 2 22.2084 12.1082 1.70766 1 4.29272e-07 
5 4 -72.5505 13.7712 1.46879 5 30.976 
85 4 -70.1245 13.2147 1.46879 1 7.99121e-16 
87 4 -68.4646 14.8843 2.27633 1 4e-16 
220 4 -66.0386 14.3278 2.27633 1 6e-16 
256 4 -63.6126 13.7712 2.27633 1 2.20988e-08 
260 1 -62.0804 14.8844 0.661203 1 5.22338e-09 
469 1 -61.1866 13.2147 2.27626 1 1.31367e-09 
506 1 -59.6544 14.3279 0.661118 1 2.51029e-09 
508 1 -57.2284 13.7714 0.660995 1 8.68236e-09 
826 1 -54.8024 13.2149 0.660819 1 1.71902e-09 
827 1 -53.1425 14.8846 1.46824 1 1.79298e-09 
1192 1 -50.7165 14.3281 1.46804 1 5.20545e-09 
1224 1 -48.2905 13.7715 1.46782 1 4.65484e-09 
1651 1 -45.8645 13.215 1.46763 1 6.58571e-09 
1657 1 -44.2047 14.8848 2.27506 1 6.74977e-09 
2112 1 -41.7787 14.3283 2.27493 1 8.08286e-09 
2115 1 -39.3527 13.7718 2.27476 1 1.73262e-08 
2141 1 -37.8205 14.8849 0.659524 1 7.86761e-09 
2570 1 -36.9267 13.2152 2.27454 1 7.49438e-09 
2571 1 -35.3946 14.3283 0.659298 1 1.56321e-08 
2598 1 -32.9686 13.7718 0.659053 1 2.45628e-08 
3030 1 -30.5427 13.2152 0.658781 1 4.43156e-08 
3036 1 -28.8828 14.8848 1.46616 1 6.81428e-08 
3491 1 -26.457 14.3282 1.46592 1 1.53255e-07 
3494 1 -24.0312 13.7717 1.46566 1 3.9328e-07 
3949 1 -21.6054 13.2151 1.46537 1 8.65298e-07 
3951 1 -19.9455 14.8847 2.27276 1 1.10576e-06 
4372 1 -17.5199 14.328 2.27248 1 2.83837e-06 
4408 1 -15.0945 13.7714 2.27227 1 7.56255e-06 
4412 1 -13.5647 14.8849 0.656739 1 1.65507e-05 
4831 1 -12.6695 13.2147 2.27217 1 2.13139e-05 
4868 1 -11.1407 14.3284 0.656598 1 3.4631e-05 
4870 1 -8.71774 13.7722 0.656426 1 8.8767e-05 
5326 1 -6.2961 13.2175 0.657834 1 0.000859218 
5327 1 -4.6214 14.881 1.46757 1 0.0139088 
5751 1 -2.14323 14.3272 1.46025 5 1.39681 
6837 2 1.22087 14.8788 0.921383 5 3.96294 
6880 2 2.84966 13.218 1.72387 1 0.080585 
6899 2 5.24381 13.7805 1.71172 1 0.00428186 
7042 2 7.65969 14.3361 1.71162 1 0.000286947 
7069 2 9.19204 13.2215 0.0950368 1 2.44545e-05 
7070 2 10.0826 14.8913 1.71046 1 4.78647e-05 
7071 2 11.6158 13.778 0.0942642 1 1.69628e-05 
7291 2 11.7395 13.2213 2.51754 1 1.63925e-05 
7294 2 14.1647 13.7777 2.51672 1 5.83276e-06 
7317 2 14.04 14.3345 0.0936942 1 1.13338e-05 
7319 2 16.4648 14.891 0.0932201 1 6.06115e-06 
7610 2 18.1236 13.2213 0.900613 1 2.83106e-06 
7613 2 16.5903 14.3343 2.5161 1 2.21055e-06 
7616 2 19.0161 14.8909 2.51567 1 8.92135e-07 
7637 2 20.549 13.7779 0.90028 1 1.22141e-06 
8011 2 22.9747 14.3345 0.899999 1 5.28248e-07 
7 4 -71.7844 17.1106 0.661242 5 18.5856 
50 4 -70.8906 15.4409 2.27633 5 6.1952 
89 4 -69.3584 16.554 0.661242 1 9.01601e-16 
91 4 -66.9324 15.9975 0.661242 1 7.01602e-16 
224 4 -65.2725 17.6671 1.46879 1 1.4942e-09 
258 4 -64.5064 15.4409 0.661242 1 5.34213e-09 
259 1 -62.8465 17.1106 1.46876 1 7.86937e-09 
473 1 -60.4205 16.5541 1.46869 1 2.20094e-09 
507 1 -57.9945 15.9976 1.46859 1 9.73548e-09 
794 1 -55.5685 15.4411 1.46842 1 3.69185e-09 
797 1 -56.3346 17.6673 2.27603 1 3.80716e-09 
800 1 -53.9086 17.1108 2.27585 1 2.61435e-09 
1195 1 -51.4826 16.5543 2.27566 1 2.15191e-09 
1196 1 -49.9504 17.6674 0.660434 1 2.3673e-09 
1198 1 -49.0566 15.9978 2.27544 1 2.25154e-09 
1227 1 -47.5244 17.1109 0.660215 1 3.74357e-09 
1654 1 -46.6307 15.4413 2.27524 1 2.14075e-09 
1655 1 -45.0985 16.5544 0.660026 1 8.04285e-09 
1685 1 -42.6725 15.9979 0.65989 1 2.05184e-09 
2113 1 -40.2465 15.4414 0.65974 1 1.06714e-08 
2116 1 -41.0126 17.6676 1.46734 1 7.4342e-09 
2119 1 -38.5866 17.1111 1.46715 1 1.28915e-08 
2574 1 -36.1607 16.5546 1.46692 1 1.38895e-08 
2577 1 -33.7347 15.998 1.46667 1 2.14207e-08 
2996 1 -32.0748 17.6677 2.27404 1 2.03373e-08 
3033 1 -31.3087 15.4414 1.46641 1 3.58735e-08 
3035 1 -29.6488 17.1111 2.27381 1 4.74419e-08 
3455 1 -27.2229 16.5545 2.27355 1 7.15373e-08 
3493 1 -24.797 15.9979 2.27332 1 1.94952e-07 
3495 1 -25.691 17.6676 0.658276 1 2.83031e-07 
3497 1 -23.2653 17.1111 0.657986 1 6.88101e-07 
3914 1 -22.3712 15.4413 2.27304 1 4.53914e-07 
3953 1 -20.8397 16.5545 0.657661 1 1.54647e-06 
3955 1 -18.4143 15.9979 0.657325 1 3.54877e-06 
4376 1 -16.7546 17.6675 1.46477 1 4.90309e-06 
4410 1 -15.9893 15.4414 0.657006 1 7.68489e-06 
4411 1 -14.3296 17.1109 1.46453 1 1.06634e-05 
4835 1 -11.905 16.5543 1.46441 1 2.00194e-05 
4869 1 -9.48077 15.9975 1.46449 1 3.25729e-05 
5294 1 -7.05589 15.4394 1.46415 1 0.00046806 
5297 1 -7.82219 17.6665 2.27214 1 0.000291423 
5300 1 -5.40203 17.1051 2.26875 1 0.00317714 
5754 1 -2.97498 16.5472 2.26383 1 0.0462151 
5755 1 -1.50641 17.6553 0.632898 5 2.67424 
5757 1 -0.457485 16.013 2.39195 5 9.02806 
6839 2 1.85553 17.1133 0.095045 5 1.4066 
6884 2 2.03853 16.5578 2.52481 1 0.0543392 
6901 2 3.59013 15.4597 0.901792 1 0.0165464 
6902 2 4.33234 17.6736 0.0946111 1 0.0153181 
6903 2 4.4683 17.1154 2.52874 1 0.00504617 
6904 2 6.004 16.0084 0.903594 1 0.00101736 
7046 2 6.89202 17.6735 2.5197 1 0.000389654 
7072 2 8.42683 16.5614 0.902809 1 9.53739e-05 
7075 2 10.8497 17.1176 0.902278 1 3.19041e-05 
7292 2 12.5068 15.4476 1.70957 1 1.55581e-05 
7320 2 13.2737 17.6739 0.901615 1 1.41877e-05 
7318 2 14.9318 16.0041 1.70889 1 6.10584e-06 
7614 2 17.3571 16.5606 1.70836 1 2.52255e-06 
7638 2 18.8899 15.4476 0.0928743 1 2.8957e-06 
7639 2 19.7826 17.1172 1.70798 1 1.03006e-06 
7640 2 21.3153 16.0042 0.0925907 1 1.35116e-06 
8014 2 21.4419 15.4475 2.51532 1 3.76473e-07 
8015 2 22.2084 17.6738 1.70766 1 4.29272e-07 
8017 2 23.8679 16.0042 2.51502 1 1.66634e-07 
8038 2 23.7409 16.5608 0.0923296 1 5.80051e-07 
6 4 -72.5505 19.3368 1.46879 5 30.976 
54 4 -70.1245 18.7803 1.46879 1 3.99121e-16 
60 4 -68.4646 20.45 2.27633 1 6e-16 
90 4 -67.6985 18.2237 1.46879 1 6.99121e-16 
227 4 -66.0386 19.8934 2.27633 1 6.00001e-16 
230 4 -63.6126 19.3368 2.27633 1 2.21012e-08 
262 1 -62.0804 20.45 0.661203 1 5.22326e-09 
476 1 -61.1866 18.7803 2.27626 1 1.31355e-09 
477 1 -59.6544 19.8935 0.661118 1 2.51025e-09 
479 1 -58.7606 18.2238 2.27617 1 5.3259e-09 
510 1 -57.2284 19.337 0.660995 1 8.68237e-09 
798 1 -54.8024 18.7805 0.660819 1 1.71903e-09 
804 1 -53.1425 20.4502 1.46824 1 1.79299e-09 
830 1 -52.3764 18.224 0.660643 1 3.45306e-09 
1199 1 -50.7165 19.8937 1.46804 1 5.20547e-09 
1202 1 -48.2905 19.3371 1.46782 1 4.65485e-09 
1658 1 -45.8645 18.7806 1.46763 1 6.58571e-09 
1660 1 -44.2047 20.4504 2.27506 1 6.74974e-09 
1661 1 -43.4386 18.2241 1.46747 1 1.90088e-09 
2079 1 -41.7787 19.8939 2.27493 1 8.08288e-09 
2118 1 -39.3527 19.3374 2.27476 1 1.73262e-08 
2122 1 -37.8205 20.4505 0.659524 1 7.86756e-09 
2538 1 -36.9267 18.7808 2.27454 1 7.49436e-09 
2576 1 -34.5008 18.2242 2.27431 1 1.14766e-08 
2578 1 -35.3946 19.8939 0.659298 1 1.56321e-08 
2580 1 -32.9686 19.3374 0.659053 1 2.45628e-08 
3037 1 -30.5427 18.7808 0.658781 1 4.43156e-08 
3038 1 -28.8828 20.4504 1.46616 1 6.81428e-08 
3039 1 -28.1168 18.2242 0.658529 1 1.1647e-07 
3459 1 -26.457 19.8938 1.46592 1 1.53255e-07 
3496 1 -24.0312 19.3373 1.46566 1 3.9328e-07 
3918 1 -21.6054 18.7807 1.46537 1 8.65297e-07 
3924 1 -19.9455 20.4503 2.27276 1 1.10576e-06 
3954 1 -19.1799 18.2241 1.46506 1 2.1378e-06 
4379 1 -17.5199 19.8936 2.27248 1 2.83837e-06 
4382 1 -15.0945 19.337 2.27227 1 7.56255e-06 
4414 1 -13.5647 20.4505 0.656739 1 1.65507e-05 
4838 1 -12.6695 18.7803 2.27217 1 2.13139e-05 
4839 1 -11.1407 19.8941 0.656598 1 3.4631e-05 
4841 1 -10.2452 18.2236 2.27214 1 6.53538e-05 
4872 1 -8.71774 19.3378 0.656426 1 8.8767e-05 
5298 1 -6.2961 18.7831 0.657834 1 0.000859218 
5304 1 -4.6214 20.4466 1.46757 1 0.0139088 
5330 1 -3.87871 18.2353 0.658981 1 0.0158625 
5758 1 -2.14323 19.8928 1.46025 5 1.39681 
6838 2 0.479446 18.2868 1.67085 5 6.60561 
6840 2 1.22087 20.4444 0.921383 5 3.96294 
6905 2 2.84966 18.7836 1.72387 1 0.080585 
6908 2 5.24381 19.3461 1.71172 1 0.00428186 
6922 2 6.76816 18.2292 0.0954053 1 0.000505727 
7076 2 7.65969 19.9017 1.71162 1 0.000286947 
7073 2 9.19204 18.7871 0.0950368 1 2.44545e-05 
7074 2 9.31486 18.2306 2.51853 1 5.28717e-05 
7079 2 10.0826 20.457 1.71046 1 4.78647e-05 
7092 2 11.6158 19.3436 0.0942642 1 1.69628e-05 
7296 2 11.7395 18.7869 2.51754 1 1.63925e-05 
7321 2 14.04 19.9001 0.0936942 1 1.13338e-05 
7322 2 14.1647 19.3433 2.51672 1 5.83276e-06 
7323 2 15.6984 18.2304 0.90105 1 6.35785e-06 
7339 2 16.4648 20.4566 0.0932201 1 6.06115e-06 
7618 2 16.5903 19.8999 2.5161 1 2.21055e-06 
7641 2 18.1236 18.7869 0.900613 1 2.83106e-06 
7643 2 19.0161 20.4565 2.51567 1 8.92135e-07 
7644 2 20.549 19.3435 0.90028 1 1.22141e-06 
8041 2 22.9747 19.9001 0.899999 1 5.28248e-07 
8 4 -71.7844 22.6762 0.661242 5 18.5856 
57 4 -70.8906 21.0065 2.27633 5 6.1952 
58 4 -69.3584 22.1196 0.661242 1 7.01602e-16 
93 4 -66.9324 21.5631 0.661242 1 7.01602e-16 
228 4 -64.5064 21.0065 0.661242 1 5.34222e-09 
234 1 -62.8465 22.6762 1.46876 1 7.87003e-09 
480 1 -60.4205 22.1197 1.46869 1 2.20093e-09 
483 1 -57.9945 21.5632 1.46859 1 9.73546e-09 
801 1 -55.5685 21.0067 1.46842 1 3.69187e-09 
803 1 -53.9086 22.6764 2.27585 1 2.61435e-09 
1162 1 -51.4826 22.1199 2.27566 1 2.15191e-09 
1201 1 -49.0566 21.5634 2.27544 1 2.25154e-09 
1205 1 -47.5244 22.6765 0.660215 1 3.74358e-09 
1620 1 -46.6307 21.0069 2.27524 1 2.14075e-09 
1662 1 -45.0985 22.12 0.660026 1 8.04284e-09 
1664 1 -42.6725 21.5635 0.65989 1 2.05183e-09 
2120 1 -40.2465 21.007 0.65974 1 1.06714e-08 
2121 1 -38.5866 22.6767 1.46715 1 1.28915e-08 
2542 1 -36.1607 22.1202 1.46692 1 1.38895e-08 
2579 1 -33.7347 21.5636 1.46667 1 2.14207e-08 
3000 1 -31.3087 21.007 1.46641 1 3.58735e-08 
3006 1 -29.6488 22.6767 2.27381 1 4.74419e-08 
3462 1 -27.2229 22.1201 2.27355 1 7.15373e-08 
3465 1 -24.797 21.5635 2.27332 1 1.94952e-07 
3499 1 -23.2653 22.6767 0.657986 1 6.88101e-07 
3921 1 -22.3712 21.0069 2.27304 1 4.53914e-07 
3922 1 -20.8397 22.1201 0.657661 1 1.54647e-06 
3957 1 -18.4143 21.5635 0.657325 1 3.54877e-06 
4380 1 -15.9893 21.007 0.657006 1 7.68489e-06 
4386 1 -14.3296 22.6765 1.46453 1 1.06634e-05 
4842 1 -11.905 22.1199 1.46441 1 2.00194e-05 
4845 1 -9.48077 21.5631 1.46449 1 3.25729e-05 
5301 1 -7.05589 21.005 1.46415 1 0.00046806 
5303 1 -5.40203 22.6707 2.26875 1 0.00317714 
5722 1 -2.97498 22.1128 2.26383 1 0.0462151 
5760 1 -0.457485 21.5787 2.39195 5 9.02806 
6842 2 1.85553 22.6789 0.095045 5 1.4066 
6906 2 3.59013 21.0253 0.901792 1 0.0165464 
6909 2 2.03853 22.1235 2.52481 1 0.0543392 
6912 2 4.4683 22.681 2.52874 1 0.00504617 
6923 2 6.004 21.5741 0.903594 1 0.00101736 
7077 2 8.42683 22.127 0.902809 1 9.53739e-05 
7093 2 10.8497 22.6832 0.902278 1 3.19041e-05 
7324 2 12.5068 21.0132 1.70957 1 1.55581e-05 
7327 2 14.9318 21.5697 1.70889 1 6.10584e-06 
7642 2 18.8899 21.0132 0.0928743 1 2.8957e-06 
7645 2 17.3571 22.1262 1.70836 1 2.52255e-06 
7648 2 19.7826 22.6828 1.70798 1 1.03006e-06 
7659 2 21.3153 21.5698 0.0925907 1 1.35116e-06 
8019 2 21.4419 21.0131 2.51532 1 3.76473e-07 
8042 2 23.7409 22.1264 0.0923296 1 5.80051e-07 
8043 2 23.8679 21.5698 2.51502 1 1.66634e-07 
1 4 -72.5505 24.9024 1.46879 5 30.976 
61 4 -70.1245 24.3459 1.46879 1 6.99121e-16 
64 4 -67.6985 23.7893 1.46879 1 9.99121e-16 
194 4 -66.0386 25.459 2.27633 1 3e-16 
231 4 -65.2725 23.2328 1.46879 1 1.4931e-09 
233 4 -63.6126 24.9024 2.27633 1 2.21026e-08 
442 1 -61.1866 24.3459 2.27626 1 1.31359e-09 
482 1 -58.7606 23.7895 2.27617 1 5.32589e-09 
484 1 -59.6544 25.4591 0.661118 1 2.51026e-09 
486 1 -57.2284 24.9026 0.660995 1 8.68237e-09 
763 1 -56.3346 23.2329 2.27603 1 3.80717e-09 
805 1 -54.8024 24.3461 0.660819 1 1.71905e-09 
807 1 -52.3764 23.7896 0.660643 1 3.45306e-09 
1166 1 -50.7165 25.4593 1.46804 1 5.20546e-09 
1203 1 -49.9504 23.233 0.660434 1 2.36731e-09 
1204 1 -48.2905 24.9028 1.46782 1 4.65486e-09 
1624 1 -45.8645 24.3462 1.46763 1 6.58571e-09 
1663 1 -43.4386 23.7897 1.46747 1 1.90088e-09 
2083 1 -41.0126 23.2333 1.46734 1 7.43418e-09 
2086 1 -41.7787 25.4595 2.27493 1 8.08284e-09 
2089 1 -39.3527 24.903 2.27476 1 1.73262e-08 
2545 1 -36.9267 24.3464 2.27454 1 7.49437e-09 
2546 1 -35.3946 25.4595 0.659298 1 1.56321e-08 
2548 1 -34.5008 23.7899 2.27431 1 1.14767e-08 
2582 1 -32.9686 24.903 0.659053 1 2.45628e-08 
3003 1 -32.0748 23.2333 2.27404 1 2.03373e-08 
3004 1 -30.5427 24.3464 0.658781 1 4.43156e-08 
3041 1 -28.1168 23.7898 0.658529 1 1.1647e-07 
3463 1 -25.691 23.2332 0.658276 1 2.83031e-07 
3466 1 -26.457 25.4595 1.46592 1 1.53255e-07 
3469 1 -24.0312 24.9029 1.46566 1 3.9328e-07 
3925 1 -21.6054 24.3463 1.46537 1 8.65297e-07 
3928 1 -19.1799 23.7897 1.46506 1 2.1378e-06 
4346 1 -17.5199 25.4592 2.27248 1 2.83837e-06 
4383 1 -16.7546 23.2331 1.46477 1 4.90309e-06 
4385 1 -15.0945 24.9026 2.27227 1 7.56255e-06 
4804 1 -12.6695 24.346 2.27217 1 2.13139e-05 
4844 1 -10.2452 23.7892 2.27214 1 6.53538e-05 
4846 1 -11.1407 25.4597 0.656598 1 3.4631e-05 
4848 1 -8.71774 24.9034 0.656426 1 8.8767e-05 
5263 1 -7.82219 23.2321 2.27214 1 0.000291423 
5305 1 -6.2961 24.3487 0.657834 1 0.000859218 
5307 1 -3.87871 23.8009 0.658981 1 0.0158625 
5726 1 -2.14323 25.4584 1.46025 5 1.39681 
5761 1 -1.50641 23.221 0.632898 5 2.67424 
6841 2 0.479446 23.8524 1.67085 5 6.60561 
6910 2 2.84966 24.3492 1.72387 1 0.080585 
6924 2 4.33234 23.2392 0.0946111 1 0.0153181 
6925 2 5.24381 24.9118 1.71172 1 0.00428186 
6926 2 6.76816 23.7948 0.0954053 1 0.000505727 
7080 2 6.89202 23.2392 2.5197 1 0.000389654 
7081 2 7.65969 25.4673 1.71162 1 0.000286947 
7083 2 9.31486 23.7962 2.51853 1 5.28717e-05 
7094 2 9.19204 24.3527 0.0950368 1 2.44545e-05 
7096 2 11.6158 24.9092 0.0942642 1 1.69628e-05 
7325 2 13.2737 23.2395 0.901615 1 1.41877e-05 
7328 2 11.7395 24.3525 2.51754 1 1.63925e-05 
7331 2 14.1647 24.9089 2.51672 1 5.83276e-06 
7340 2 15.6984 23.796 0.90105 1 6.35785e-06 
7341 2 14.04 25.4657 0.0936942 1 1.13338e-05 
7646 2 18.1236 24.3525 0.900613 1 2.83106e-06 
7649 2 16.5903 25.4655 2.5161 1 2.21055e-06 
7660 2 20.549 24.9091 0.90028 1 1.22141e-06 
8045 2 22.2084 23.2394 1.70766 1 4.29272e-07 
8046 2 22.9747 25.4657 0.899999 1 5.28248e-07 
3 4 -71.7844 28.2418 0.661242 5 18.5856 
32 4 -70.8906 26.5721 2.27633 5 6.1952 
63 4 -68.4646 26.0156 2.27633 1 6.00001e-16 
65 4 -69.3584 27.6852 0.661242 1 7.01602e-16 
67 4 -66.9324 27.1287 0.661242 1 9.01601e-16 
235 4 -64.5064 26.5721 0.661242 1 5.34229e-09 
236 1 -62.8465 28.2418 1.46876 1 7.87009e-09 
237 1 -62.0804 26.0156 0.661203 1 5.22335e-09 
446 1 -60.4205 27.6853 1.46869 1 2.20092e-09 
485 1 -57.9945 27.1288 1.46859 1 9.7355e-09 
767 1 -55.5685 26.5723 1.46842 1 3.69186e-09 
773 1 -53.9086 28.242 2.27585 1 2.61435e-09 
806 1 -53.1425 26.0158 1.46824 1 1.79299e-09 
1169 1 -51.4826 27.6855 2.27566 1 2.15193e-09 
1172 1 -49.0566 27.129 2.27544 1 2.25154e-09 
1207 1 -47.5244 28.2421 0.660215 1 3.74356e-09 
1627 1 -46.6307 26.5725 2.27524 1 2.14075e-09 
1628 1 -45.0985 27.6856 0.660026 1 8.04285e-09 
1630 1 -44.2047 26.016 2.27506 1 6.74973e-09 
1666 1 -42.6725 27.1291 0.65989 1 2.05182e-09 
2087 1 -40.2465 26.5726 0.65974 1 1.06714e-08 
2093 1 -38.5866 28.2423 1.46715 1 1.28915e-08 
2124 1 -37.8205 26.0161 0.659524 1 7.86754e-09 
2549 1 -36.1607 27.6858 1.46692 1 1.38895e-08 
2552 1 -33.7347 27.1292 1.46667 1 2.14207e-08 
3007 1 -31.3087 26.5726 1.46641 1 3.58734e-08 
3009 1 -29.6488 28.2423 2.27381 1 4.74419e-08 
3010 1 -28.8828 26.016 1.46616 1 6.81428e-08 
3428 1 -27.2229 27.6857 2.27355 1 7.15372e-08 
3468 1 -24.797 27.1291 2.27332 1 1.94952e-07 
3472 1 -23.2653 28.2423 0.657986 1 6.88101e-07 
3887 1 -22.3712 26.5725 2.27304 1 4.53914e-07 
3927 1 -19.9455 26.0159 2.27276 1 1.10576e-06 
3929 1 -20.8397 27.6857 0.657661 1 1.54647e-06 
3931 1 -18.4143 27.1291 0.657325 1 3.54877e-06 
4387 1 -15.9893 26.5726 0.657006 1 7.68489e-06 
4388 1 -14.3296 28.2421 1.46453 1 1.06634e-05 
4389 1 -13.5647 26.0161 0.656739 1 1.65507e-05 
4808 1 -11.905 27.6855 1.46441 1 2.00194e-05 
4847 1 -9.48077 27.1287 1.46449 1 3.25729e-05 
5267 1 -7.05589 26.5706 1.46415 1 0.00046806 
5273 1 -5.40203 28.2363 2.26875 1 0.00317714 
5306 1 -4.6214 26.0123 1.46757 1 0.0139088 
5729 1 -2.97498 27.6784 2.26383 1 0.0462151 
5732 1 -0.457485 27.1443 2.39195 5 9.02806 
6843 2 1.22087 26.01 0.921383 5 3.96294 
6845 2 1.85553 28.2446 0.095045 5 1.4066 
6914 2 2.03853 27.6891 2.52481 1 0.0543392 
6927 2 3.59013 26.5909 0.901792 1 0.0165464 