ITEM: TIMESTEP
0
ITEM: NUMBER OF ATOMS
9264
ITEM: BOX BOUNDS ss pp pp
-60.4896 113.273
0 24.7654
0 23.349
ITEM: ATOMS id type x y z c_cna c_csd 
2 4 -60.4895 1.57624 2.59026 5 24.7808 
3 4 -59.245 1.201 0.46762 5 6.1952 
24 4 -58.0005 1.57624 2.59026 1 1.2012e-15 
31 4 -55.5114 1.57624 2.59026 1 8.01201e-16 
32 4 -56.7559 1.201 0.46762 1 1.00001e-15 
33 4 -54.2669 1.201 0.46762 1 1.00001e-15 
107 4 -53.0224 1.57624 2.59026 1 1.93763e-09 
114 1 -50.5334 1.57619 2.59025 1 7.85282e-09 
115 4 -51.7779 1.201 0.46762 1 1.37836e-08 
116 1 -49.2889 1.20092 0.467593 1 1.1873e-08 
248 1 -48.0444 1.57608 2.59022 1 3.8618e-09 
255 1 -45.5553 1.57594 2.59021 1 4.29931e-09 
256 1 -46.7998 1.20077 0.467569 1 4.17167e-09 
257 1 -44.3108 1.20065 0.467566 1 1.22503e-08 
448 1 -43.0663 1.57583 2.59019 1 5.3767e-09 
455 1 -40.5772 1.57575 2.59019 1 4.178e-09 
456 1 -41.8218 1.20056 0.467562 1 8.56091e-09 
457 1 -39.3327 1.20048 0.46755 1 6.34924e-09 
694 1 -38.0882 1.57568 2.59018 1 4.73882e-09 
701 1 -35.5991 1.57556 2.59018 1 3.02817e-09 
702 1 -36.8436 1.2004 0.46755 1 5.20107e-09 
703 1 -34.3546 1.20026 0.467531 1 4.59659e-09 
957 1 -33.11 1.57541 2.59015 1 1.77315e-09 
964 1 -30.621 1.57524 2.59012 1 2.27259e-09 
965 1 -31.8655 1.20008 0.4675 1 2.76032e-09 
966 1 -29.3764 1.19992 0.467456 1 1.15817e-09 
1221 1 -28.1319 1.57506 2.59007 1 4.97947e-09 
1228 1 -25.6428 1.57489 2.59 1 2.59172e-09 
1229 1 -26.8873 1.19975 0.467407 1 3.27229e-09 
1230 1 -24.3983 1.19957 0.467335 1 4.57995e-09 
1485 1 -23.1537 1.57469 2.58996 1 9.01087e-09 
1492 1 -20.6646 1.57447 2.58995 1 6.82976e-08 
1493 1 -21.9092 1.19939 0.467277 1 1.73961e-08 
1494 1 -19.4202 1.1992 0.467266 1 7.55439e-08 
1749 1 -18.1755 1.57428 2.59 1 3.24512e-07 
1756 1 -15.6865 1.57427 2.58994 1 1.44239e-06 
1757 1 -16.9312 1.19903 0.467262 1 5.0287e-07 
1758 1 -14.4424 1.19898 0.46716 1 4.62384e-06 
2013 1 -13.1975 1.57499 2.58941 1 1.20136e-05 
2021 1 -11.9531 1.19926 0.466644 1 4.0079e-05 
2020 1 -10.7088 1.57749 2.58731 1 0.000133029 
2022 1 -9.46189 1.20013 0.46489 1 0.000287679 
2277 1 -8.22112 1.58298 2.58153 1 0.00134437 
2285 1 -6.96426 1.20134 0.459813 1 0.00209861 
2284 1 -5.73799 1.58946 2.5694 1 0.0129958 
2286 1 -4.45197 1.19708 0.444729 1 0.0231346 
2541 1 -3.27493 1.57845 2.56022 1 0.177218 
2549 1 -1.93593 1.18043 0.438556 1 0.332381 
2550 3 0.487816 1.0421 0.633919 5 4.22169 
3359 2 2.64988 1.92702 1.00726 5 4.96624 
3387 2 5.05319 1.91953 1.01087 1 0.0542432 
3526 2 7.50393 1.91702 1.00485 1 0.0057454 
3554 2 9.98026 1.91254 1.00056 1 0.000591673 
3749 2 12.4661 1.91 0.998608 1 5.9484e-05 
3777 2 14.9548 1.90905 0.998003 1 5.87732e-06 
4005 2 17.4441 1.9088 0.997924 1 6.90653e-07 
4033 2 19.9333 1.90881 0.997991 1 9.81255e-08 
4269 2 22.4225 1.9088 0.998074 1 1.92265e-08 
4297 2 24.9116 1.90876 0.998146 1 1.09951e-08 
15 4 -60.4895 5.32857 0.46762 5 24.7808 
27 4 -59.245 3.4524 1.52894 5 6.1952 
28 4 -58.0005 5.32857 0.46762 1 1.0988e-15 
29 4 -56.7559 3.4524 1.52894 1 1.0988e-15 
98 4 -55.5114 5.32857 0.46762 1 6.98804e-16 
110 4 -54.2669 3.4524 1.52894 1 1.0988e-15 
111 4 -53.0224 5.32857 0.46762 1 1.89246e-09 
112 4 -51.7779 3.4524 1.52894 1 1.5869e-08 
239 1 -50.5334 5.32853 0.467597 1 1.2234e-08 
251 1 -49.2889 3.45232 1.52892 1 8.13262e-09 
252 1 -48.0444 5.32841 0.467566 1 3.58168e-09 
253 1 -46.7999 3.45217 1.52889 1 3.14153e-09 
439 1 -45.5553 5.32827 0.467553 1 3.78452e-09 
451 1 -44.3108 3.45204 1.52888 1 6.62444e-09 
452 1 -43.0663 5.32817 0.46755 1 2.45687e-09 
453 1 -41.8218 3.45196 1.52887 1 9.49415e-10 
685 1 -40.5772 5.32809 0.467548 1 1.54233e-09 
697 1 -39.3327 3.45188 1.52887 1 2.18697e-09 
698 1 -38.0881 5.328 0.467548 1 2.25318e-09 
699 1 -36.8436 3.45179 1.52887 1 2.40218e-09 
948 1 -35.5991 5.3279 0.467543 1 5.23061e-09 
960 1 -34.3546 3.45167 1.52886 1 7.51846e-09 
961 1 -33.11 5.32775 0.467523 1 5.09858e-09 
962 1 -31.8655 3.45149 1.52882 1 1.89816e-09 
1212 1 -30.6209 5.32757 0.467461 1 2.58865e-09 
1224 1 -29.3764 3.45132 1.52878 1 1.99141e-09 
1225 1 -28.1319 5.3274 0.467415 1 3.18762e-09 
1226 1 -26.8873 3.45115 1.52873 1 8.08498e-09 
1476 1 -25.6428 5.32723 0.467346 1 1.9742e-09 
1488 1 -24.3983 3.45096 1.52865 1 7.8364e-09 
1489 1 -23.1537 5.32705 0.467269 1 1.90176e-08 
1490 1 -21.9092 3.45076 1.52863 1 3.00717e-08 
1740 1 -20.6647 5.32686 0.467248 1 5.98361e-08 
1752 1 -19.4202 3.45056 1.52865 1 1.64061e-07 
1753 1 -18.1758 5.32669 0.467242 1 2.78021e-07 
1754 1 -16.9313 3.45042 1.52867 1 6.4823e-07 
2004 1 -15.6871 5.3266 0.467147 1 2.1879e-06 
2016 1 -14.4425 3.45063 1.52857 1 3.8428e-06 
2017 1 -13.1985 5.32676 0.466819 1 1.77434e-05 
2018 1 -11.9536 3.45185 1.52796 1 3.13767e-05 
2268 1 -10.7094 5.3275 0.465723 1 0.00012972 
2280 1 -9.46317 3.45521 1.52602 1 0.000258449 
2281 1 -8.21738 5.32917 0.462631 1 0.00084633 
2282 1 -6.96722 3.46186 1.52219 1 0.00218032 
2532 1 -5.71726 5.33088 0.454853 1 0.00623542 
2544 1 -4.4545 3.46676 1.52032 1 0.0301227 
2545 1 -3.20248 5.32562 0.434626 1 0.0881159 
2546 1 -1.87996 3.47387 1.60779 5 3.97587 
2795 3 -0.74758 5.31688 0.445371 5 1.32451 
3358 2 0.730168 3.4131 1.49556 5 8.50488 
3361 2 3.72728 3.80037 2.06681 5 0.827171 
3525 2 6.23897 3.80263 2.07309 1 0.0130695 
3528 2 8.73191 3.79473 2.06545 1 0.00127795 
3748 2 11.2215 3.78873 2.06122 1 0.00012555 
3751 2 13.7106 3.786 2.0596 1 1.16903e-05 
4004 2 16.1998 3.7851 2.05922 1 1.4409e-06 
4007 2 18.6889 3.78494 2.05924 1 2.45395e-07 
4268 2 21.178 3.78495 2.05933 1 6.47244e-08 
4271 2 23.6671 3.78493 2.05942 1 1.30712e-08 
4532 2 26.1561 3.78491 2.05949 1 5.12239e-09 
16 4 -60.4895 7.57997 1.52894 5 24.7808 
17 4 -59.245 5.7038 2.59026 5 6.1952 
78 4 -58.0005 7.57997 1.52894 1 9.98802e-16 
97 4 -56.7559 5.7038 2.59026 1 1.5e-15 
99 4 -55.5114 7.57997 1.52894 1 5.98802e-16 
100 4 -54.2669 5.7038 2.59026 1 1.5e-15 
219 4 -53.0224 7.57997 1.52894 1 1.87068e-09 
238 4 -51.7779 5.7038 2.59026 1 2.09492e-08 
240 1 -50.5334 7.57993 1.52893 1 1.02178e-08 
241 1 -49.2889 5.7037 2.59024 1 4.68419e-09 
419 1 -48.0444 7.57981 1.52888 1 5.586e-09 
438 1 -46.7999 5.70357 2.5902 1 5.88748e-09 
440 1 -45.5553 7.57966 1.52886 1 1.01774e-08 
441 1 -44.3108 5.70345 2.59018 1 6.87506e-09 
665 1 -43.0663 7.57957 1.52886 1 1.61378e-09 
684 1 -41.8217 5.70337 2.59019 1 1.51006e-09 
686 1 -40.5772 7.57948 1.52886 1 2.06806e-09 
687 1 -39.3327 5.70329 2.59018 1 1.90623e-09 
928 1 -38.0881 7.57941 1.52885 1 5.54031e-09 
947 1 -36.8436 5.7032 2.59019 1 6.52416e-09 
949 1 -35.5991 7.57929 1.52886 1 3.36249e-09 
950 1 -34.3545 5.70306 2.59018 1 5.23897e-09 
1192 1 -33.11 7.57915 1.52883 1 2.4454e-09 
1211 1 -31.8655 5.70289 2.59014 1 1.32924e-09 
1213 1 -30.6209 7.57897 1.52878 1 3.01212e-09 
1214 1 -29.3764 5.70272 2.59008 1 1.97228e-09 
1456 1 -28.1319 7.57881 1.52873 1 2.51659e-09 
1475 1 -26.8873 5.70255 2.59003 1 3.17457e-09 
1477 1 -25.6428 7.57863 1.52866 1 2.02834e-09 
1478 1 -24.3982 5.70235 2.58995 1 7.66817e-09 
1720 1 -23.1537 7.57843 1.5286 1 1.21239e-08 
1739 1 -21.9092 5.70216 2.58992 1 2.52153e-08 
1741 1 -20.6646 7.57824 1.52862 1 7.08193e-08 
1742 1 -19.4201 5.70196 2.58995 1 1.6042e-07 
1984 1 -18.1755 7.57806 1.52865 1 3.97196e-07 
2003 1 -16.9312 5.70183 2.58993 1 9.3238e-07 
2005 1 -15.6865 7.57805 1.52862 1 2.52301e-06 
2006 1 -14.4423 5.70215 2.58964 1 6.56855e-06 
2248 1 -13.1971 7.57869 1.52831 1 2.03442e-05 
2267 1 -11.9538 5.70371 2.58838 1 6.35365e-05 
2269 1 -10.7065 7.58095 1.52715 1 0.000174717 
2270 1 -9.46625 5.70786 2.58452 1 0.000604733 
2512 1 -8.2114 7.58622 1.52446 1 0.00147188 
2531 1 -6.98149 5.71526 2.57572 1 0.00529719 
2533 1 -5.70272 7.59476 1.52183 1 0.0148699 
2534 1 -4.50756 5.71884 2.56085 1 0.0533669 
2776 1 -3.15163 7.59509 1.55176 1 0.200479 
2794 1 -2.06812 5.70423 2.59199 5 1.76041 
2796 1 -0.495896 7.45402 1.7481 5 4.95971 
3333 2 1.44767 5.95992 0.951703 5 7.66417 
3466 2 2.38855 7.91642 1.9574 5 3.22065 
3495 2 4.97377 7.93276 2.07197 1 0.0767505 
3497 2 3.84827 6.0485 1.01176 1 0.188871 
3499 2 6.27774 6.04823 1.01018 1 0.0188024 
3689 2 7.47886 7.92759 2.06798 1 0.00694546 
3718 2 9.97322 7.91932 2.06285 1 0.000853694 
3720 2 8.74274 6.04316 1.00343 1 0.00237117 
3722 2 11.2238 6.03906 0.99982 1 0.000267729 
3945 2 12.4644 7.91479 2.06025 1 0.000101428 
3974 2 14.9545 7.91304 2.05937 1 1.24832e-05 
3976 2 13.7109 6.03716 0.998418 1 2.65499e-05 
3978 2 16.1997 6.03652 0.998028 1 2.49298e-06 
4209 2 17.444 7.91257 2.05922 1 1.763e-06 
4240 2 18.6888 6.0364 0.998002 1 2.67153e-07 
4238 2 19.9333 7.91253 2.05929 1 2.32986e-07 
4242 2 21.178 6.03639 0.998058 1 3.84848e-08 
4473 2 22.4225 7.91252 2.05938 1 3.3371e-08 
4504 2 23.6671 6.03636 0.998124 1 9.66544e-09 
4502 2 24.9116 7.91251 2.05947 1 7.399e-09 
4506 2 26.1561 6.03633 0.998181 1 4.08969e-09 
51 4 -60.4895 9.83137 2.59026 5 24.7808 
79 4 -58.0005 9.83137 2.59026 1 1.1988e-15 
81 4 -59.245 9.45613 0.46762 5 6.1952 
82 4 -56.7559 9.45613 0.46762 1 9.97606e-16 
191 4 -55.5114 9.83137 2.59026 1 7.98802e-16 
220 4 -53.0224 9.83137 2.59026 1 1.58911e-09 
222 4 -54.2669 9.45613 0.46762 1 9.97606e-16 
223 4 -51.7779 9.45613 0.46762 1 1.41872e-08 
391 1 -50.5334 9.83133 2.59025 1 8.8304e-09 
420 1 -48.0444 9.83121 2.59022 1 4.06634e-09 
422 1 -49.2889 9.45605 0.467591 1 7.94823e-09 
423 1 -46.7998 9.45591 0.467558 1 4.99289e-09 
637 1 -45.5553 9.83106 2.59019 1 1.14812e-08 
666 1 -43.0663 9.83098 2.59019 1 2.97893e-09 
668 1 -44.3108 9.45578 0.467553 1 9.65854e-09 
669 1 -41.8217 9.4557 0.467552 1 2.86158e-09 
900 1 -40.5772 9.83089 2.59019 1 2.83801e-09 
929 1 -38.0881 9.83081 2.59018 1 1.99036e-09 
931 1 -39.3327 9.45562 0.467554 1 5.08841e-09 
932 1 -36.8436 9.45552 0.467546 1 5.08815e-09 
1164 1 -35.5991 9.83069 2.59018 1 2.44722e-09 
1193 1 -33.11 9.83054 2.59015 1 2.11622e-09 
1195 1 -34.3545 9.45539 0.467531 1 2.45989e-09 
1196 1 -31.8655 9.45523 0.467494 1 2.70555e-09 
1428 1 -30.6209 9.83038 2.59011 1 4.61324e-09 
1457 1 -28.1319 9.83021 2.59004 1 2.14766e-09 
1459 1 -29.3764 9.45507 0.467443 1 2.91279e-09 
1460 1 -26.8873 9.45489 0.467368 1 1.81398e-09 
1692 1 -25.6428 9.83003 2.58997 1 8.2122e-09 
1721 1 -23.1537 9.82982 2.58993 1 9.98169e-09 
1723 1 -24.3982 9.4547 0.467294 1 1.06223e-08 
1724 1 -21.9092 9.45452 0.467275 1 2.16902e-08 
1956 1 -20.6646 9.8296 2.58995 1 5.62602e-08 
1985 1 -18.1755 9.82941 2.59 1 3.10615e-07 
1987 1 -19.4201 9.45433 0.467278 1 8.57323e-08 
1988 1 -16.9312 9.45416 0.467268 1 5.00951e-07 
2220 1 -15.6865 9.82939 2.58993 1 1.45419e-06 
2249 1 -13.1975 9.83011 2.5894 1 1.19738e-05 
2251 1 -14.4423 9.4541 0.467145 1 4.6459e-06 
2252 1 -11.9531 9.45438 0.466642 1 4.03035e-05 
2484 1 -10.7088 9.83262 2.58732 1 0.000132586 
2515 1 -9.46185 9.45526 0.464904 1 0.000287924 
2513 1 -8.22109 9.8381 2.58156 1 0.0013423 
2516 1 -6.96422 9.45646 0.459841 1 0.00210069 
2748 1 -5.73795 9.8446 2.56942 1 0.0130001 
2779 1 -4.45192 9.4522 0.444736 1 0.0231485 
2777 1 -3.27488 9.83355 2.56022 1 0.177265 
2780 1 -1.93588 9.43553 0.438536 1 0.332427 
2999 3 0.487871 9.2972 0.633894 5 4.22205 
3467 2 2.64992 10.1821 1.00721 5 4.96626 
3661 2 5.05322 10.1747 1.01084 1 0.0542743 
3690 2 7.50397 10.1722 1.00486 1 0.0057526 
3917 2 9.9803 10.1677 1.00057 1 0.000592546 
3946 2 12.4662 10.1651 0.998636 1 5.9468e-05 
4181 2 14.9549 10.1642 0.998032 1 5.93036e-06 
4210 2 17.4441 10.1639 0.997934 1 6.53541e-07 
4445 2 19.9333 10.1639 0.997985 1 1.0313e-07 
4474 2 22.4225 10.1639 0.998066 1 2.50366e-08 
4709 2 24.9116 10.1639 0.998141 1 3.85067e-09 
54 4 -60.4895 13.5837 0.46762 5 24.7808 
55 4 -59.245 11.7075 1.52894 5 6.1952 
165 4 -58.0005 13.5837 0.46762 1 8.98805e-16 
194 4 -56.7559 11.7075 1.52894 1 1.2976e-15 
195 4 -55.5114 13.5837 0.46762 1 4.98804e-16 
196 4 -54.2669 11.7075 1.52894 1 1.2976e-15 
365 4 -53.0224 13.5837 0.46762 1 2.00371e-09 
394 4 -51.7779 11.7075 1.52894 1 1.59698e-08 
395 1 -50.5334 13.5837 0.46761 1 6.92724e-09 
396 1 -49.2889 11.7074 1.52892 1 3.37427e-09 
611 1 -48.0443 13.5835 0.467582 1 1.67237e-09 
640 1 -46.7998 11.7073 1.52889 1 2.16503e-09 
641 1 -45.5553 13.5834 0.467563 1 2.08138e-09 
642 1 -44.3108 11.7072 1.52887 1 4.05096e-09 
874 1 -43.0662 13.5833 0.467543 1 2.36524e-09 
903 1 -41.8217 11.7071 1.52887 1 1.55435e-09 
904 1 -40.5772 13.5832 0.46754 1 1.92427e-09 
905 1 -39.3327 11.707 1.52887 1 2.5623e-09 
1138 1 -38.0881 13.5831 0.467543 1 3.71989e-09 
1167 1 -36.8436 11.7069 1.52887 1 1.07249e-08 
1168 1 -35.5991 13.583 0.467526 1 3.9826e-09 
1169 1 -34.3546 11.7068 1.52885 1 6.21357e-09 
1402 1 -33.11 13.5829 0.467484 1 2.81771e-09 
1431 1 -31.8655 11.7066 1.5288 1 1.44354e-09 
1432 1 -30.6209 13.5827 0.467435 1 6.55087e-09 
1433 1 -29.3764 11.7065 1.52875 1 7.14117e-09 
1666 1 -28.1319 13.5825 0.467391 1 5.08804e-09 
1695 1 -26.8873 11.7063 1.52869 1 2.76552e-09 
1696 1 -25.6428 13.5824 0.46733 1 1.89631e-09 
1697 1 -24.3982 11.7061 1.52861 1 1.08865e-08 
1930 1 -23.1537 13.5822 0.46726 1 1.74735e-08 
1959 1 -21.9092 11.7059 1.5286 1 1.81096e-08 
1960 1 -20.6647 13.582 0.467256 1 5.20719e-08 
1961 1 -19.4202 11.7057 1.52864 1 1.62813e-07 
2194 1 -18.1758 13.5818 0.467262 1 2.94063e-07 
2223 1 -16.9313 11.7056 1.52868 1 6.53333e-07 
2224 1 -15.6871 13.5817 0.467156 1 2.12722e-06 
2225 1 -14.4425 11.7058 1.52859 1 3.94947e-06 
2458 1 -13.1985 13.5819 0.466826 1 1.80863e-05 
2487 1 -11.9536 11.707 1.52798 1 3.14363e-05 
2488 1 -10.7094 13.5826 0.465734 1 0.00013096 
2489 1 -9.46317 11.7103 1.52605 1 0.000258113 
2722 1 -8.21741 13.5843 0.462653 1 0.00084668 
2751 1 -6.96722 11.717 1.52221 1 0.00217939 
2752 1 -5.71729 13.586 0.454884 1 0.00623439 
2753 1 -4.45448 11.7219 1.52034 1 0.0301351 
2970 1 -3.20253 13.5807 0.434635 1 0.0881462 
2993 1 -1.87991 11.729 1.60782 5 3.97628 
2994 3 -0.747615 13.572 0.445419 5 1.32432 
3440 2 0.730232 11.6682 1.49562 5 8.50572 
3660 2 3.72724 12.0555 2.06679 5 0.827084 
3663 2 6.23895 12.0577 2.07309 1 0.0130789 
3916 2 8.73192 12.0499 2.06548 1 0.00127992 
3919 2 11.2215 12.0439 2.06124 1 0.000125572 
4180 2 13.7106 12.0411 2.05964 1 1.17346e-05 
4183 2 16.1998 12.0402 2.05924 1 1.48055e-06 
4444 2 18.6889 12.0401 2.05924 1 2.24989e-07 
4447 2 21.178 12.0401 2.05932 1 6.85633e-08 
4708 2 23.6671 12.0401 2.05942 1 8.25762e-09 
4711 2 26.1562 12.0401 2.05948 1 1.94836e-09 
135 4 -60.4895 15.8351 1.52894 5 24.7808 
164 4 -59.245 13.9589 2.59026 5 6.1952 
166 4 -58.0005 15.8351 1.52894 1 1.1988e-15 
167 4 -56.7559 13.9589 2.59026 1 1.3e-15 
334 4 -55.5114 15.8351 1.52894 1 7.98802e-16 
364 4 -54.2669 13.9589 2.59026 1 1.3e-15 
366 4 -53.0224 15.8351 1.52894 1 1.97967e-09 
367 4 -51.7779 13.9589 2.59026 1 1.71112e-08 
580 1 -50.5334 15.8351 1.52893 1 6.17861e-09 
610 1 -49.2889 13.9588 2.59025 1 6.52097e-09 
612 1 -48.0443 15.835 1.5289 1 1.74204e-09 
613 1 -46.7998 13.9587 2.59021 1 3.07105e-09 
843 1 -45.5553 15.8348 1.52888 1 2.76828e-09 
873 1 -44.3108 13.9586 2.59019 1 1.62261e-09 
875 1 -43.0662 15.8347 1.52887 1 1.80714e-09 
876 1 -41.8217 13.9585 2.59018 1 1.60273e-09 
1107 1 -40.5772 15.8346 1.52886 1 4.7677e-09 
1137 1 -39.3327 13.9584 2.59018 1 3.41199e-09 
1139 1 -38.0881 15.8345 1.52885 1 3.22542e-09 
1140 1 -36.8436 13.9583 2.59019 1 1.33143e-08 
1371 1 -35.5991 15.8344 1.52884 1 6.83563e-09 
1401 1 -34.3546 13.9582 2.59014 1 3.50818e-09 
1403 1 -33.11 15.8343 1.5288 1 2.35919e-09 
1404 1 -31.8655 13.958 2.59011 1 1.75197e-09 
1635 1 -30.621 15.8341 1.52877 1 1.46803e-09 
1665 1 -29.3764 13.9579 2.59006 1 6.97634e-09 
1667 1 -28.1319 15.8339 1.52873 1 1.55762e-09 
1668 1 -26.8873 13.9577 2.59001 1 2.04613e-09 
1899 1 -25.6428 15.8338 1.52866 1 3.60448e-09 
1929 1 -24.3982 13.9575 2.58994 1 9.54727e-09 
1931 1 -23.1537 15.8336 1.5286 1 1.61458e-08 
1932 1 -21.9092 13.9573 2.58993 1 2.66283e-08 
2163 1 -20.6646 15.8334 1.52861 1 7.1852e-08 
2193 1 -19.4201 13.9571 2.58995 1 1.35475e-07 
2195 1 -18.1756 15.8332 1.52867 1 3.95506e-07 
2196 1 -16.9311 13.957 2.58994 1 7.98001e-07 
2427 1 -15.6865 15.8332 1.52863 1 2.4906e-06 
2457 1 -14.4423 13.9573 2.58966 1 6.61014e-06 
2459 1 -13.1971 15.8338 1.52833 1 2.05288e-05 
2460 1 -11.9538 13.9588 2.5884 1 6.38217e-05 
2691 1 -10.7065 15.8361 1.52717 1 0.000175937 
2721 1 -9.46627 13.963 2.58453 1 0.000606551 
2723 1 -8.21142 15.8414 1.52446 1 0.0014746 
2724 1 -6.98152 13.9704 2.57574 1 0.00530096 
2939 1 -5.70276 15.8499 1.52185 1 0.0148687 
2969 1 -4.50758 13.974 2.56087 1 0.0533666 
2971 1 -3.15167 15.8502 1.55176 1 0.200478 
2972 1 -2.06815 13.9594 2.59197 5 1.76053 
3135 1 -0.495892 15.7092 1.74808 5 4.96002 
3630 2 2.38846 16.1716 1.95738 5 3.2208 
3632 2 1.44763 14.215 0.951694 5 7.66334 
3634 2 3.84826 14.3036 1.01175 1 0.188988 
3858 2 4.97371 16.1879 2.07197 1 0.0767761 
3886 2 7.47882 16.1827 2.068 1 0.00694645 
3888 2 6.2777 14.3033 1.01019 1 0.0188004 
3890 2 8.74272 14.2983 1.00346 1 0.0023719 
4122 2 9.97318 16.1744 2.06287 1 0.000854365 
4150 2 12.4644 16.1699 2.06025 1 0.000102633 
4152 2 11.2238 14.2942 0.999843 1 0.000267703 
4154 2 13.7109 14.2923 0.998452 1 2.68478e-05 
4386 2 14.9545 16.1682 2.05939 1 1.26263e-05 
4414 2 17.444 16.1677 2.05924 1 1.74959e-06 
4416 2 16.1997 14.2917 0.998065 1 2.5644e-06 
4418 2 18.6888 14.2915 0.998004 1 2.74372e-07 
4650 2 19.9333 16.1677 2.05929 1 2.74635e-07 
4680 2 21.178 14.2915 0.998041 1 5.20099e-08 
4678 2 22.4225 16.1677 2.05938 1 4.14487e-08 
4682 2 23.6671 14.2915 0.998111 1 1.00933e-08 
4914 2 24.9116 16.1676 2.05945 1 8.4977e-09 
4944 2 26.1562 14.2915 0.998161 1 2.82667e-09 
136 4 -60.4895 18.0865 2.59026 5 24.7808 
138 4 -59.245 17.7113 0.46762 5 6.1952 
303 4 -58.0005 18.0865 2.59026 1 1.2e-15 
335 4 -55.5114 18.0865 2.59026 1 8e-16 
337 4 -56.7559 17.7113 0.46762 1 7.98805e-16 
338 4 -54.2669 17.7113 0.46762 1 7.98805e-16 
549 4 -53.0224 18.0865 2.59026 1 2.0066e-09 
581 1 -50.5334 18.0865 2.59025 1 4.5354e-09 
583 4 -51.7779 17.7113 0.46762 1 1.58044e-08 
584 1 -49.2889 17.7112 0.46759 1 4.53805e-09 
812 1 -48.0444 18.0864 2.59022 1 3.94527e-09 
844 1 -45.5553 18.0862 2.5902 1 3.86858e-09 
846 1 -46.7998 17.7111 0.467568 1 1.03985e-09 
847 1 -44.3108 17.7109 0.467555 1 4.60656e-09 
1076 1 -43.0663 18.0861 2.59019 1 1.83661e-09 
1108 1 -40.5772 18.086 2.59018 1 5.06821e-09 
1110 1 -41.8217 17.7108 0.46754 1 1.85672e-09 
1111 1 -39.3327 17.7107 0.467533 1 3.59618e-09 
1340 1 -38.0882 18.0859 2.59018 1 3.48576e-09 
1372 1 -35.5991 18.0858 2.59016 1 7.55232e-09 
1374 1 -36.8436 17.7107 0.46753 1 6.93205e-09 
1375 1 -34.3546 17.7105 0.467507 1 3.23568e-09 
1604 1 -33.11 18.0857 2.59014 1 1.69296e-09 
1636 1 -30.621 18.0855 2.59012 1 5.22494e-09 
1638 1 -31.8655 17.7104 0.467487 1 1.95247e-09 
1639 1 -29.3764 17.7102 0.467455 1 3.86213e-09 
1868 1 -28.1319 18.0853 2.59007 1 4.18491e-09 
1900 1 -25.6428 18.0852 2.59001 1 6.92297e-09 
1902 1 -26.8873 17.71 0.467404 1 5.64591e-09 
1903 1 -24.3983 17.7098 0.467324 1 6.93702e-09 
2132 1 -23.1537 18.0849 2.58995 1 1.49948e-08 
2164 1 -20.6646 18.0847 2.58996 1 7.50653e-08 
2166 1 -21.9092 17.7096 0.467269 1 2.83874e-08 
2167 1 -19.4202 17.7095 0.467278 1 7.84521e-08 
2396 1 -18.1756 18.0845 2.59001 1 2.96433e-07 
2428 1 -15.6865 18.0845 2.58995 1 1.43041e-06 
2430 1 -16.9313 17.7093 0.467283 1 5.03549e-07 
2431 1 -14.4424 17.7093 0.467162 1 4.54596e-06 
2660 1 -13.1975 18.0853 2.58942 1 1.20327e-05 
2694 1 -11.9531 17.7095 0.466643 1 4.01864e-05 
2692 1 -10.7088 18.0877 2.58732 1 0.000133078 
2695 1 -9.46188 17.7104 0.464891 1 0.000287944 
2908 1 -8.22113 18.0932 2.58153 1 0.00134422 
2942 1 -6.96425 17.7116 0.459814 1 0.00210185 
2940 1 -5.73798 18.0997 2.5694 1 0.0129978 
2943 1 -4.45196 17.7073 0.444719 1 0.0231499 
3109 1 -3.27492 18.0887 2.5602 1 0.177254 
3137 1 -1.93592 17.6907 0.438521 1 0.332422 
3138 3 0.487818 17.5524 0.633849 5 4.22146 
3837 2 2.64985 18.4373 1.00721 5 4.96619 
3859 2 5.05316 18.4298 1.01086 1 0.0542565 
4101 2 7.5039 18.4273 1.00488 1 0.00574362 
4123 2 9.98025 18.4228 1.00058 1 0.000591341 
4365 2 12.4661 18.4203 0.998641 1 5.96188e-05 
4387 2 14.9548 18.4193 0.99803 1 5.88827e-06 
4629 2 17.4441 18.4191 0.997932 1 6.91083e-07 
4651 2 19.9333 18.4191 0.997979 1 1.07002e-07 
4893 2 22.4225 18.4191 0.998058 1 2.37535e-08 
4915 2 24.9116 18.419 0.998131 1 1.10903e-08 
277 4 -60.4895 21.8388 0.46762 5 24.7808 
306 4 -59.245 19.9627 1.52894 5 6.1952 
307 4 -58.0005 21.8388 0.46762 1 6.98805e-16 
308 4 -56.7559 19.9627 1.52894 1 1.4988e-15 
523 4 -55.5114 21.8388 0.46762 1 2.98804e-16 
552 4 -54.2669 19.9627 1.52894 1 1.4988e-15 
553 4 -53.0224 21.8388 0.46762 1 1.36875e-09 
554 4 -51.7779 19.9627 1.52894 1 1.45315e-08 
786 1 -50.5334 21.8388 0.46761 1 7.06788e-09 
815 1 -49.2889 19.9626 1.52892 1 3.97249e-09 
816 1 -48.0443 21.8387 0.467588 1 7.57094e-09 
817 1 -46.7998 19.9625 1.52888 1 5.21976e-09 
1050 1 -45.5553 21.8386 0.467564 1 4.63544e-09 
1079 1 -44.3108 19.9623 1.52888 1 4.15276e-09 
1080 1 -43.0662 21.8384 0.467552 1 9.21837e-09 
1081 1 -41.8217 19.9622 1.52887 1 2.22571e-09 
1314 1 -40.5772 21.8384 0.467535 1 5.23716e-09 
1343 1 -39.3327 19.9621 1.52886 1 1.53776e-09 
1344 1 -38.0881 21.8383 0.467539 1 3.51425e-09 
1345 1 -36.8436 19.9621 1.52886 1 5.99694e-09 
1578 1 -35.5991 21.8382 0.467552 1 1.64022e-08 
1607 1 -34.3546 19.9619 1.52885 1 3.184e-09 
1608 1 -33.11 21.838 0.467516 1 3.05541e-09 
1609 1 -31.8655 19.9618 1.52883 1 6.41881e-09 
1842 1 -30.6209 21.8378 0.467461 1 4.30505e-09 
1871 1 -29.3764 19.9616 1.52878 1 1.82883e-09 
1872 1 -28.1319 21.8377 0.467425 1 2.45733e-09 
1873 1 -26.8873 19.9614 1.52872 1 2.8828e-09 
2106 1 -25.6428 21.8375 0.467363 1 3.21036e-09 
2135 1 -24.3983 19.9612 1.52865 1 7.20993e-09 
2136 1 -23.1537 21.8373 0.467279 1 1.96685e-08 
2137 1 -21.9092 19.961 1.52862 1 3.19141e-08 
2370 1 -20.6647 21.8371 0.467256 1 6.34304e-08 
2399 1 -19.4202 19.9608 1.52865 1 1.53549e-07 
2400 1 -18.1758 21.837 0.467235 1 3.06578e-07 
2401 1 -16.9313 19.9607 1.52869 1 6.9263e-07 
2634 1 -15.6871 21.8369 0.467149 1 2.22434e-06 
2663 1 -14.4426 19.9609 1.52858 1 3.82394e-06 
2664 1 -13.1985 21.837 0.466814 1 1.80513e-05 
2665 1 -11.9536 19.9621 1.52796 1 3.12345e-05 
2882 1 -10.7094 21.8378 0.465713 1 0.000130505 
2911 1 -9.4632 19.9655 1.52601 1 0.000257258 
2912 1 -8.21743 21.8394 0.462613 1 0.000845706 
2913 1 -6.96724 19.9721 1.52218 1 0.00217608 
3083 1 -5.71731 21.8411 0.454846 1 0.00623459 
3112 1 -4.45453 19.977 1.52031 1 0.0301276 
3113 1 -3.20254 21.8359 0.434618 1 0.0881199 
3114 1 -1.87997 19.9841 1.60779 5 3.97604 
3223 3 -0.747615 21.8272 0.445413 5 1.32431 
3836 2 0.730149 19.9234 1.49557 5 8.50511 
3839 2 3.72723 20.3106 2.06681 5 0.827156 
4100 2 6.23893 20.3129 2.07311 1 0.0130752 
4103 2 8.73188 20.305 2.06548 1 0.00128069 
4364 2 11.2214 20.299 2.06125 1 0.000125628 
4367 2 13.7106 20.2963 2.05963 1 1.17937e-05 
4628 2 16.1998 20.2954 2.05923 1 1.4626e-06 
4631 2 18.6889 20.2952 2.05922 1 2.67785e-07 
4892 2 21.178 20.2952 2.0593 1 6.14497e-08 
4895 2 23.6671 20.2952 2.05942 1 1.70444e-08 
5156 2 26.1562 20.2952 2.05948 1 5.90933e-09 
278 4 -60.4895 24.0902 1.52894 5 24.7808 
279 4 -59.245 22.2141 2.59026 5 6.1952 
495 4 -58.0005 24.0902 1.52894 1 1.2e-15 
522 4 -56.7559 22.2141 2.59026 1 1e-15 
524 4 -55.5114 24.0902 1.52894 1 8.00003e-16 
525 4 -54.2669 22.2141 2.59026 1 1e-15 
758 4 -53.0224 24.0902 1.52894 1 1.81344e-09 
785 4 -51.7779 22.2141 2.59026 1 1.56981e-08 
787 1 -50.5334 24.0902 1.52893 1 7.22544e-09 
788 1 -49.2889 22.214 2.59025 1 2.92397e-09 
1022 1 -48.0444 24.0901 1.52891 1 5.96978e-09 
1049 1 -46.7998 22.2138 2.59022 1 3.73318e-09 
1051 1 -45.5553 24.0899 1.52889 1 5.39787e-09 
1052 1 -44.3108 22.2137 2.5902 1 4.62698e-09 
1286 1 -43.0663 24.0898 1.52887 1 6.42204e-09 
1313 1 -41.8217 22.2136 2.59019 1 3.94729e-09 
1315 1 -40.5772 24.0897 1.52887 1 7.05597e-09 
1316 1 -39.3327 22.2135 2.59019 1 2.23064e-09 
1550 1 -38.0882 24.0897 1.52887 1 3.86729e-09 
1577 1 -36.8436 22.2135 2.5902 1 1.30806e-08 
1579 1 -35.5991 24.0896 1.52886 1 5.48076e-09 
1580 1 -34.3546 22.2133 2.59018 1 4.67838e-09 
1814 1 -33.11 24.0894 1.52884 1 2.6286e-09 
1841 1 -31.8655 22.2131 2.59013 1 3.68264e-09 
1843 1 -30.6209 24.0892 1.52879 1 2.02827e-09 
1844 1 -29.3764 22.213 2.59009 1 1.72521e-09 
2078 1 -28.1319 24.0891 1.52875 1 3.58549e-09 
2105 1 -26.8873 22.2128 2.59005 1 4.23785e-09 
2107 1 -25.6428 24.0889 1.52869 1 4.4677e-09 
2108 1 -24.3983 22.2126 2.58998 1 1.10782e-08 
2342 1 -23.1537 24.0887 1.52863 1 1.77187e-08 
2369 1 -21.9092 22.2124 2.58993 1 4.34268e-08 
2371 1 -20.6646 24.0885 1.52861 1 6.63998e-08 
2372 1 -19.4202 22.2122 2.58994 1 1.47304e-07 
2606 1 -18.1756 24.0883 1.52865 1 4.01166e-07 
2633 1 -16.9312 22.2121 2.58994 1 9.27323e-07 
2635 1 -15.6865 24.0883 1.52862 1 2.49771e-06 
2636 1 -14.4423 22.2124 2.58965 1 6.7326e-06 
2854 1 -13.1972 24.089 1.52831 1 2.03647e-05 
2881 1 -11.9539 22.214 2.58837 1 6.43634e-05 
2883 1 -10.7066 24.0912 1.52714 1 0.00017503 
2884 1 -9.46631 22.2181 2.58449 1 0.00060772 
3055 1 -8.21145 24.0965 1.52443 1 0.00147083 
3082 1 -6.98155 22.2255 2.57569 1 0.00530187 
3084 1 -5.70279 24.105 1.52181 1 0.0148548 
3085 1 -4.50762 22.2291 2.56083 1 0.0533703 
3199 1 -3.1517 24.1054 1.55174 1 0.200464 
3222 1 -2.06817 22.2145 2.59197 5 1.76035 
3224 1 -0.495907 23.9643 1.74814 5 4.95996 
3826 2 1.44763 22.4701 0.951746 5 7.66375 
4081 2 2.38849 24.4267 1.95742 5 3.22075 
4085 2 4.97373 24.443 2.07199 1 0.0767545 
4087 2 3.84827 22.5587 1.01178 1 0.188975 
4089 2 6.27769 22.5585 1.01019 1 0.0187963 
4345 2 7.47882 24.4378 2.06799 1 0.00694441 
4349 2 9.97317 24.4296 2.06286 1 0.000854323 
4351 2 8.7427 22.5534 1.00345 1 0.00236971 
4353 2 11.2238 22.5493 0.999838 1 0.000267073 
4609 2 12.4644 24.4251 2.06024 1 0.00010248 
4613 2 14.9544 24.4233 2.05937 1 1.27171e-05 
4615 2 13.7108 22.5474 0.998429 1 2.64803e-05 
4617 2 16.1997 22.5468 0.998037 1 2.48749e-06 
4873 2 17.444 24.4228 2.05922 1 1.86005e-06 
4879 2 18.6888 22.5467 0.997985 1 2.71858e-07 
4877 2 19.9333 24.4228 2.05927 1 2.92394e-07 
4881 2 21.178 22.5467 0.998026 1 5.03724e-08 
5137 2 22.4225 24.4228 2.05938 1 3.84425e-08 
5143 2 23.6671 22.5466 0.998123 1 1.25827e-08 
5141 2 24.9116 24.4227 2.05947 1 1.46528e-08 
5145 2 26.1561 22.5466 0.998175 1 3.75629e-09 
23 4 -59.245 1.95147 4.7129 5 6.1952 
26 4 -56.7559 1.95147 4.7129 1 1.30031e-15 
106 4 -54.2669 1.95147 4.7129 1 1.30031e-15 
109 4 -51.7779 1.95147 4.7129 1 1.97498e-08 
247 1 -49.2889 1.95137 4.71289 1 4.95537e-09 
250 1 -46.7999 1.95124 4.71286 1 1.0337e-08 
447 1 -44.3108 1.95114 4.71283 1 4.94488e-09 
450 1 -41.8218 1.95104 4.71282 1 2.50311e-09 
693 1 -39.3327 1.95096 4.71282 1 5.15079e-09 
696 1 -36.8436 1.95087 4.71282 1 7.20436e-09 
956 1 -34.3546 1.95073 4.7128 1 5.54441e-09 
959 1 -31.8655 1.95057 4.71277 1 2.07715e-09 
1220 1 -29.3764 1.9504 4.71273 1 4.18217e-09 
1223 1 -26.8873 1.95021 4.71267 1 3.21407e-09 
1484 1 -24.3983 1.95003 4.71261 1 5.66424e-09 
1487 1 -21.9092 1.94983 4.71257 1 2.86162e-08 
1748 1 -19.42 1.94966 4.71256 1 9.88779e-08 
1751 1 -16.9307 1.94948 4.71259 1 7.70043e-07 
2012 1 -14.4415 1.94949 4.71251 1 6.69407e-06 
2015 1 -11.9529 1.9501 4.71202 1 6.57277e-05 
2276 1 -9.46743 1.95194 4.7104 1 0.000636308 
2279 1 -6.99215 1.95535 4.70684 1 0.00604784 
2540 1 -4.54382 1.95739 4.70183 1 0.0560659 
2543 1 -2.14352 1.96633 4.70338 5 5.01723 
2548 1 -0.869144 1.56776 2.62807 5 4.56771 
2798 3 -0.00625859 1.01904 5.09061 5 4.19626 
3283 2 1.36694 1.53042 3.08759 5 4.00714 
3386 2 3.77708 1.53915 3.15181 1 0.170422 
3388 2 6.24678 1.5495 3.14111 1 0.0116898 
3553 2 8.73299 1.54288 3.12886 1 0.00120185 
3555 2 11.2218 1.5372 3.12314 1 0.000119715 
3776 2 13.7108 1.53455 3.12108 1 1.10136e-05 
3778 2 16.1998 1.53367 3.12056 1 1.39385e-06 
4032 2 18.6889 1.53352 3.12054 1 2.80617e-07 
4034 2 21.1779 1.53354 3.12063 1 6.98911e-08 
4296 2 23.667 1.53353 3.12073 1 1.5481e-08 
4298 2 26.1561 1.53351 3.12082 1 5.25326e-09 
12 4 -60.4895 3.82764 3.65158 5 24.7808 
25 4 -58.0005 3.82764 3.65158 1 7.00001e-16 
94 4 -55.5114 3.82764 3.65158 1 3e-16 
108 4 -53.0224 3.82764 3.65158 1 2.68541e-09 
235 1 -50.5334 3.82758 3.65157 1 8.47153e-09 
249 1 -48.0444 3.82747 3.65154 1 7.97224e-09 
435 1 -45.5553 3.82734 3.65152 1 7.68524e-09 
449 1 -43.0663 3.82724 3.65151 1 4.48228e-09 
681 1 -40.5772 3.82716 3.6515 1 1.31046e-09 
695 1 -38.0882 3.82709 3.65151 1 4.25914e-09 
944 1 -35.5991 3.82697 3.6515 1 3.37317e-09 
958 1 -33.11 3.82682 3.65148 1 9.83232e-10 
1208 1 -30.621 3.82665 3.65145 1 5.78454e-09 
1222 1 -28.1319 3.82647 3.65138 1 1.47223e-09 
1472 1 -25.6428 3.82628 3.65131 1 5.69912e-09 
1486 1 -23.1537 3.82609 3.65127 1 1.06476e-08 
1736 1 -20.6646 3.82589 3.65126 1 5.38483e-08 
1750 1 -18.1755 3.82571 3.6513 1 2.55359e-07 
2000 1 -15.6864 3.82569 3.65126 1 1.47653e-06 
2014 1 -13.1972 3.82637 3.65087 1 1.21077e-05 
2264 1 -10.7081 3.82877 3.6493 1 0.000128351 
2278 1 -8.2191 3.83419 3.64512 1 0.00126164 
2528 1 -5.72793 3.84136 3.63746 1 0.0125679 
2542 1 -3.22065 3.83867 3.64162 5 0.904769 
2792 1 -0.204136 3.41142 4.23237 5 8.23797 
2797 3 0.249191 5.29602 2.85712 5 7.7115 
3355 2 2.39097 3.43604 4.10461 5 0.910921 
3384 2 4.96559 3.42617 4.18761 1 0.0277948 
3522 2 7.47975 3.42091 4.18704 1 0.00203047 
3551 2 9.97634 3.41459 4.18397 1 0.000253465 
3745 2 12.4669 3.4113 4.18238 1 3.26031e-05 
3774 2 14.9559 3.41007 4.18188 1 4.11186e-06 
4001 2 17.4447 3.40974 4.18185 1 6.27794e-07 
4030 2 19.9336 3.40972 4.18193 1 1.21187e-07 
4265 2 22.4225 3.40971 4.18202 1 3.6832e-08 
4294 2 24.9116 3.40969 4.1821 1 6.5832e-09 
13 4 -60.4895 6.07903 4.7129 5 24.7808 
74 4 -58.0005 6.07903 4.7129 1 1.2e-15 
77 4 -59.245 7.9552 3.65158 5 6.1952 
80 4 -56.7559 7.9552 3.65158 1 5.00001e-16 
95 4 -55.5114 6.07903 4.7129 1 8e-16 
215 4 -53.0224 6.07903 4.7129 1 2.50664e-09 
218 4 -54.2669 7.9552 3.65158 1 5.00001e-16 
221 4 -51.7779 7.9552 3.65158 1 1.87699e-08 
236 1 -50.5334 6.07899 4.71288 1 9.1961e-09 
415 1 -48.0444 6.07888 4.71286 1 4.235e-09 
418 1 -49.2889 7.9551 3.65155 1 2.67921e-09 
421 1 -46.7998 7.95497 3.65151 1 7.46333e-09 
436 1 -45.5553 6.07875 4.71282 1 6.3414e-09 
661 1 -43.0663 6.07865 4.71282 1 3.39892e-09 
664 1 -44.3108 7.95486 3.6515 1 3.64854e-09 