ITEM: TIMESTEP
0
ITEM: NUMBER OF ATOMS
22290
ITEM: BOX BOUNDS ss pp pp
-71.9457 119.968
0 30.4841
0 41.5748
ITEM: ATOMS id type x y z c_cna c_csd 
64 4 -71.5584 2.26987 1.98325 5 30.976 
67 4 -69.6227 2.26987 0.41861 1 9.02804e-16 
79 4 -70.1389 0.237597 1.75973 5 12.3904 
80 4 -68.2032 0.237597 0.19509 1 4.99366e-16 
259 4 -67.2998 2.26987 1.31269 1 4.99761e-16 
260 4 -65.8803 0.237597 1.08917 1 1.09984e-15 
262 4 -64.9769 2.26987 2.20677 1 2.99921e-16 
293 4 -63.5574 0.237597 1.98325 1 1.26425e-09 
552 4 -63.0412 2.26987 0.64213 1 5.06256e-09 
596 1 -60.7183 2.2699 1.53625 1 4.15054e-09 
598 1 -61.6216 0.237611 0.418628 1 4.24905e-09 
599 1 -59.2987 0.237657 1.31276 1 1.46536e-09 
1006 1 -58.3953 2.26995 2.43039 1 6.00227e-09 
1068 1 -56.9758 0.237721 2.20688 1 3.74619e-09 
1011 1 -56.4596 2.27002 0.865773 1 2.91863e-09 
1069 1 -55.04 0.237812 0.642274 1 2.49547e-09 
1532 1 -54.1366 2.27011 1.75989 1 5.57039e-09 
1533 1 -52.7171 0.237901 1.5364 1 2.12972e-09 
1534 1 -52.2009 2.27022 0.195286 1 3.2283e-09 
1591 1 -50.3942 0.237997 2.43051 1 2.44264e-09 
2003 1 -49.878 2.2703 1.0894 1 2.41828e-09 
2061 1 -47.555 2.2704 1.98352 1 4.2706e-09 
2063 1 -48.4584 0.238097 0.865899 1 1.9555e-09 
2064 1 -46.1355 0.238173 1.76003 1 6.46677e-09 
2531 1 -45.6193 2.27046 0.41892 1 7.12379e-09 
2532 1 -44.1997 0.238196 0.195447 1 4.67218e-09 
2533 1 -43.2964 2.27047 1.31308 1 5.21919e-09 
2591 1 -41.8768 0.238195 1.08962 1 4.6621e-09 
3060 1 -40.9735 2.27046 2.20726 1 3.56184e-09 
3061 1 -39.5539 0.238149 1.98381 1 4.01731e-09 
3062 1 -39.0377 2.27041 0.642732 1 2.70975e-09 
3064 1 -37.6182 0.238117 0.419273 1 3.48796e-09 
3529 1 -36.7148 2.27038 1.53693 1 3.93399e-09 
3587 1 -34.3919 2.27038 2.43111 1 2.67906e-09 
3589 1 -35.2953 0.238106 1.31347 1 1.92512e-09 
3591 1 -32.9724 0.238123 2.20765 1 2.90561e-09 
4058 1 -32.4562 2.27039 0.866547 1 3.24394e-09 
4059 1 -31.0367 0.238133 0.643072 1 4.10241e-09 
4060 1 -30.1333 2.27044 1.76071 1 9.34545e-09 
4117 1 -28.7138 0.238178 1.53724 1 1.33539e-08 
4530 1 -28.1976 2.27042 0.196126 1 1.00533e-08 
4586 1 -26.391 0.238234 2.4314 1 3.67222e-08 
4587 1 -25.8748 2.2705 1.09027 1 3.60355e-08 
4590 1 -24.4552 0.238282 0.866759 1 6.8311e-08 
5057 1 -23.552 2.27065 1.98441 1 1.4318e-07 
5060 1 -21.6163 2.27074 0.41972 1 2.5952e-07 
5117 1 -22.1325 0.238491 1.7609 1 2.66116e-07 
5118 1 -20.1968 0.23861 0.19617 1 5.43816e-07 
5585 1 -19.2937 2.27114 1.31385 1 1.11372e-06 
5586 1 -17.8744 0.239148 1.09032 1 2.21551e-06 
5588 1 -16.9712 2.27161 2.20805 1 3.53078e-06 
5645 1 -15.552 0.239815 1.98458 1 7.25817e-06 
6056 1 -15.0361 2.27236 0.643251 1 8.15564e-06 
6113 1 -12.7143 2.27379 1.53775 1 2.63586e-05 
6115 1 -13.6169 0.240902 0.419736 1 1.77467e-05 
6116 1 -11.2952 0.243086 1.31433 1 6.27326e-05 
6582 1 -10.3923 2.27491 2.4328 1 7.9315e-05 
6644 1 -8.97229 0.245072 2.20909 1 0.000182333 
6587 1 -8.46137 2.28025 0.868644 1 0.000311576 
6645 1 -7.03785 0.253084 0.64442 1 0.0011652 
7112 1 -6.14401 2.28416 1.76766 1 0.00193801 
7113 1 -4.71153 0.25837 1.54528 1 0.00991154 
7114 1 -4.22881 2.30268 0.207171 1 0.0143204 
7171 1 -2.36419 0.237931 2.4674 1 0.147327 
7558 1 -1.94683 2.31066 1.13657 1 0.207859 
7614 1 -0.615327 0.268191 0.796733 5 5.33861 
9191 2 0.353393 2.17447 2.09331 5 6.04131 
9194 2 2.6541 1.91944 2.05591 5 4.32251 
9702 2 4.92089 1.91201 1.14668 1 0.0686 
9705 2 7.20534 1.9116 0.229553 1 0.0060452 
10174 2 9.124 1.9012 1.79468 1 0.000835375 
10232 2 11.4423 1.89597 0.895722 1 0.000177949 
10703 2 13.3751 1.89167 2.46003 1 6.14029e-05 
10960 2 13.7617 1.89129 5.33704e-05 1 4.5353e-05 
10706 2 15.6968 1.89008 1.56501 1 2.01619e-05 
11230 2 18.0186 1.88867 0.670516 1 5.56188e-06 
11232 2 19.954 1.88828 2.23528 1 2.6764e-06 
11700 2 22.2765 1.88784 1.34102 1 7.69265e-07 
65 4 -71.0422 4.30214 0.64213 5 18.5856 
234 4 -68.7194 4.30214 1.53621 1 1.0004e-15 
257 4 -66.3965 4.30214 2.43029 1 1.20032e-15 
551 4 -64.4607 4.30214 0.865651 1 1.00056e-15 
553 4 -62.1378 4.30214 1.75973 1 1.41616e-08 
955 1 -60.2021 4.30218 0.195137 1 3.85633e-09 
1007 1 -57.8792 4.30224 1.08927 1 8.82896e-09 
1475 1 -55.5562 4.30232 1.98338 1 2.89782e-09 
1478 1 -53.6205 4.30242 0.418782 1 4.32727e-09 
2002 1 -51.2975 4.30251 1.31289 1 1.6571e-09 
2005 1 -48.9746 4.30261 2.20701 1 2.80935e-09 
2476 1 -47.0388 4.30269 0.642419 1 5.01073e-09 
2529 1 -44.7159 4.30274 1.53655 1 5.88544e-09 
3001 1 -42.393 4.30275 2.43072 1 5.53929e-09 
3006 1 -40.4573 4.30272 0.866174 1 1.58406e-09 
3528 1 -38.1344 4.30267 1.76037 1 3.37988e-09 
3530 1 -36.1986 4.30265 0.195821 1 5.50345e-09 
4002 1 -33.8757 4.30266 1.09001 1 2.10065e-09 
4056 1 -31.5529 4.30269 1.98418 1 4.81668e-09 
4529 1 -29.6171 4.30269 0.419602 1 9.84428e-09 
4531 1 -27.2943 4.30274 1.31377 1 2.46789e-08 
5056 1 -24.9715 4.30283 2.20791 1 6.79061e-08 
5058 1 -23.0358 4.30291 0.643245 1 1.36229e-07 
5528 1 -20.7131 4.3032 1.53738 1 5.41784e-07 
5583 1 -18.3904 4.30355 2.43156 1 1.74052e-06 
6055 1 -16.4552 4.30409 0.866805 1 4.46252e-06 
6057 1 -14.1331 4.30506 1.76126 1 1.50167e-05 
6530 1 -12.1987 4.30658 0.196451 1 4.28276e-05 
6583 1 -9.87839 4.30985 1.09183 1 0.000170566 
7055 1 -7.55704 4.31321 1.98746 1 0.000495695 
7058 1 -5.62468 4.32714 0.426214 1 0.00290244 
7557 1 -3.29174 4.33898 1.33078 1 0.0560224 
7560 1 -0.804225 4.33833 2.15487 5 4.42973 
9246 2 1.78576 3.83754 0.62348 5 6.22111 
9248 2 3.89768 3.96848 2.22479 1 0.249096 
9703 2 6.28534 3.94941 1.35737 1 0.0142721 
9757 2 8.60869 3.93919 0.452801 1 0.00139697 
10233 2 10.5399 3.92965 2.015 1 0.000312115 
10236 2 12.8604 3.92562 1.11885 1 0.000107274 
10758 2 15.1807 3.92233 0.223652 1 2.58324e-05 
10760 2 17.1158 3.92151 1.78846 1 1.09884e-05 
11231 2 19.4378 3.92056 0.894033 1 2.98551e-06 
11236 2 21.3733 3.92029 2.45875 1 1.33988e-06 
11759 2 23.6959 3.91998 1.56452 1 4.00713e-07 
233 4 -70.1389 6.33442 1.75973 5 12.3904 
235 4 -68.2032 6.33442 0.19509 1 5.00565e-16 
515 4 -65.8803 6.33442 1.08917 1 1.10104e-15 
549 4 -63.5574 6.33442 1.98325 1 1.26428e-09 
954 1 -61.6216 6.33443 0.418628 1 4.2491e-09 
956 1 -59.2987 6.33448 1.31276 1 1.46532e-09 
1474 1 -56.9758 6.33454 2.20688 1 3.74619e-09 
1476 1 -55.04 6.33463 0.642274 1 2.49547e-09 
1949 1 -52.7171 6.33472 1.5364 1 2.12974e-09 
2000 1 -50.3942 6.33482 2.43051 1 2.44263e-09 
2475 1 -48.4584 6.33492 0.865899 1 1.95549e-09 
2477 1 -46.1355 6.33499 1.76003 1 6.46678e-09 
2953 1 -44.1997 6.33501 0.195447 1 4.67219e-09 
3002 1 -41.8768 6.33501 1.08962 1 4.66211e-09 
3475 1 -39.5539 6.33497 1.98381 1 4.01732e-09 
3478 1 -37.6182 6.33494 0.419273 1 3.48796e-09 
4001 1 -35.2953 6.33492 1.31347 1 1.92512e-09 
4004 1 -32.9724 6.33494 2.20765 1 2.90561e-09 
4478 1 -31.0367 6.33495 0.643072 1 4.10241e-09 
4527 1 -28.7138 6.335 1.53724 1 1.33539e-08 
5001 1 -26.391 6.33505 2.4314 1 3.67222e-08 
5006 1 -24.4552 6.3351 0.866759 1 6.8311e-08 
5527 1 -22.1325 6.33531 1.7609 1 2.66116e-07 
5529 1 -20.1968 6.33543 0.19617 1 5.43816e-07 
6003 1 -17.8744 6.33597 1.09032 1 2.21551e-06 
6053 1 -15.552 6.33663 1.98458 1 7.25817e-06 
6529 1 -13.6169 6.33772 0.419736 1 1.77467e-05 
6531 1 -11.2952 6.33991 1.31433 1 6.27326e-05 
7054 1 -8.97229 6.34189 2.20909 1 0.000182333 
7056 1 -7.03785 6.3499 0.64442 1 0.0011652 
7504 1 -4.71153 6.35519 1.54528 1 0.00991154 
7555 1 -2.36419 6.33475 2.4674 1 0.147327 
7917 1 -0.615327 6.36501 0.796733 5 5.33861 
8860 2 1.39662 5.93811 1.76127 5 10.2159 
9247 2 3.53397 5.94918 0.86093 1 0.387688 
9252 2 5.37019 5.9704 2.48282 1 0.0312038 
9758 2 7.69965 5.97218 1.57112 1 0.00334971 
9761 2 10.0221 5.96496 0.672188 1 0.000542878 
10234 2 11.9562 5.95858 2.23672 1 0.000128866 
10284 2 14.278 5.95597 1.34168 1 4.40453e-05 
10759 2 16.5994 5.95378 0.447054 1 1.14746e-05 
10764 2 18.5348 5.95322 2.01185 1 5.43201e-06 
11284 2 20.8571 5.95257 1.11753 1 1.52147e-06 
11287 2 23.1796 5.95214 0.223328 1 3.67251e-07 
218 4 -71.5584 8.36669 1.98325 5 30.976 
221 4 -69.6227 8.36669 0.41861 1 9.02806e-16 
514 4 -67.2998 8.36669 1.31269 1 4.99762e-16 
517 4 -64.9769 8.36669 2.20677 1 2.99922e-16 
909 4 -63.0412 8.36669 0.64213 1 5.06263e-09 
952 1 -60.7183 8.36672 1.53625 1 4.15057e-09 
1423 1 -58.3953 8.36677 2.43039 1 6.00225e-09 
1428 1 -56.4596 8.36684 0.865773 1 2.91863e-09 
1948 1 -54.1366 8.36693 1.75989 1 5.57041e-09 
1950 1 -52.2009 8.36704 0.195286 1 3.2283e-09 
2427 1 -49.878 8.36712 1.0894 1 2.41827e-09 
2473 1 -47.555 8.36722 1.98352 1 4.27061e-09 
2952 1 -45.6193 8.36728 0.41892 1 7.1238e-09 
2954 1 -43.2964 8.36729 1.31308 1 5.21918e-09 
3474 1 -40.9735 8.36728 2.20726 1 3.56185e-09 
3476 1 -39.0377 8.36723 0.642732 1 2.70975e-09 
3952 1 -36.7148 8.3672 1.53693 1 3.93399e-09 
3999 1 -34.3919 8.3672 2.43111 1 2.67906e-09 
4477 1 -32.4562 8.36721 0.866547 1 3.24393e-09 
4479 1 -30.1333 8.36726 1.76071 1 9.34544e-09 
4957 1 -28.1976 8.36724 0.196126 1 1.00533e-08 
5002 1 -25.8748 8.36732 1.09027 1 3.60355e-08 
5478 1 -23.552 8.36747 1.98441 1 1.4318e-07 
5481 1 -21.6163 8.36756 0.41972 1 2.5952e-07 
6002 1 -19.2937 8.36796 1.31385 1 1.11372e-06 
6005 1 -16.9712 8.36843 2.20805 1 3.53078e-06 
6482 1 -15.0361 8.36918 0.643251 1 8.15564e-06 
6527 1 -12.7143 8.37061 1.53775 1 2.63586e-05 
7003 1 -10.3923 8.37173 2.4328 1 7.9315e-05 
7008 1 -8.46137 8.37707 0.868644 1 0.000311576 
7503 1 -6.14401 8.38098 1.76766 1 0.00193801 
7505 1 -4.22881 8.3995 0.207171 1 0.0143204 
7873 1 -1.94683 8.40747 1.13657 1 0.207859 
8861 2 0.353393 8.27128 2.09331 5 6.04131 
8864 2 2.6541 8.01626 2.05591 5 4.32251 
8904 2 1.78576 9.93436 0.62348 5 6.22111 
8906 2 3.89768 10.0653 2.22479 1 0.249096 
9296 2 4.92089 8.00883 1.14668 1 0.0686 
9297 2 6.28534 10.0462 1.35737 1 0.0142721 
9299 2 7.20534 8.00842 0.229553 1 0.0060452 
9339 2 8.60869 10.036 0.452801 1 0.00139697 
9759 2 9.124 7.99802 1.79468 1 0.000835375 
9806 2 10.5399 10.0265 2.015 1 0.000312115 
9805 2 11.4423 7.99279 0.895722 1 0.000177949 
9809 2 12.8604 10.0224 1.11885 1 0.000107274 
10285 2 13.3751 7.98849 2.46003 1 6.14029e-05 
10484 2 13.7617 7.98811 5.33705e-05 1 4.5353e-05 
10288 2 15.6968 7.9869 1.56501 1 2.01619e-05 
10328 2 15.1807 10.0192 0.223652 1 2.58324e-05 
10330 2 17.1158 10.0183 1.78846 1 1.09884e-05 
10808 2 18.0186 7.98549 0.670516 1 5.56188e-06 
10809 2 19.4378 10.0174 0.894033 1 2.98551e-06 
10810 2 19.954 7.9851 2.23528 1 2.6764e-06 
10814 2 21.3733 10.0171 2.45875 1 1.33988e-06 
11285 2 22.2765 7.98466 1.34102 1 7.69265e-07 
11332 2 23.6959 10.0168 1.56452 1 4.00713e-07 
219 4 -71.0422 10.399 0.64213 5 18.5856 
488 4 -70.1389 12.4312 1.75973 5 12.3904 
489 4 -68.7194 10.399 1.53621 1 7.004e-16 
490 4 -68.2032 12.4312 0.19509 1 5.00564e-16 
512 4 -66.3965 10.399 2.43029 1 9.00322e-16 
872 4 -65.8803 12.4312 1.08917 1 1.10104e-15 
908 4 -64.4607 10.399 0.865651 1 7.00565e-16 
906 4 -63.5574 12.4312 1.98325 1 1.26374e-09 
910 4 -62.1378 10.399 1.75973 1 1.41625e-08 
1382 1 -61.6216 12.4312 0.418628 1 4.24998e-09 
1383 1 -60.2021 10.399 0.195137 1 3.85625e-09 
1384 1 -59.2987 12.4313 1.31276 1 1.46531e-09 
1424 1 -57.8792 10.3991 1.08927 1 8.82895e-09 
1902 1 -56.9758 12.4314 2.20688 1 3.74617e-09 
1903 1 -55.5562 10.3991 1.98338 1 2.89783e-09 
1904 1 -55.04 12.4314 0.642274 1 2.49545e-09 
1906 1 -53.6205 10.3992 0.418782 1 4.3273e-09 
2385 1 -52.7171 12.4315 1.5364 1 2.12973e-09 
2424 1 -50.3942 12.4316 2.43051 1 2.44262e-09 
2426 1 -51.2975 10.3993 1.31289 1 1.6571e-09 
2429 1 -48.9746 10.3994 2.20701 1 2.80934e-09 
2908 1 -48.4584 12.4317 0.865899 1 1.9555e-09 
2909 1 -47.0388 10.3995 0.642419 1 5.01072e-09 
2910 1 -46.1355 12.4318 1.76003 1 6.46677e-09 
2950 1 -44.7159 10.3996 1.53655 1 5.88544e-09 
3391 1 -44.1997 12.4318 0.195447 1 4.67219e-09 
3427 1 -42.393 10.3996 2.43072 1 5.53929e-09 
3428 1 -41.8768 12.4318 1.08962 1 4.66211e-09 
3432 1 -40.4573 10.3995 0.866174 1 1.58406e-09 
3910 1 -39.5539 12.4318 1.98381 1 4.01731e-09 
3913 1 -37.6182 12.4318 0.419273 1 3.48796e-09 
3951 1 -38.1344 10.3995 1.76037 1 3.37985e-09 
3953 1 -36.1986 10.3995 0.195821 1 5.50341e-09 
4432 1 -35.2953 12.4317 1.31347 1 1.92511e-09 
4433 1 -33.8757 10.3995 1.09001 1 2.10065e-09 
4435 1 -32.9724 12.4318 2.20765 1 2.90561e-09 
4475 1 -31.5529 10.3995 1.98418 1 4.81667e-09 
4917 1 -31.0367 12.4318 0.643072 1 4.10242e-09 
4956 1 -29.6171 10.3995 0.419602 1 9.8443e-09 
4954 1 -28.7138 12.4318 1.53724 1 1.33539e-08 
4958 1 -27.2943 10.3996 1.31377 1 2.4679e-08 
5434 1 -26.391 12.4319 2.4314 1 3.67222e-08 
5439 1 -24.4552 12.4319 0.866759 1 6.8311e-08 
5477 1 -24.9715 10.3997 2.20791 1 6.79061e-08 
5479 1 -23.0358 10.3997 0.643245 1 1.36229e-07 
5956 1 -22.1325 12.4321 1.7609 1 2.66116e-07 
5957 1 -20.7131 10.4 1.53738 1 5.41784e-07 
5958 1 -20.1968 12.4322 0.19617 1 5.43816e-07 
6000 1 -18.3904 10.4004 2.43156 1 1.74052e-06 
6441 1 -17.8744 12.4328 1.09032 1 2.21551e-06 
6481 1 -16.4552 10.4009 0.866805 1 4.46252e-06 
6479 1 -15.552 12.4335 1.98458 1 7.25817e-06 
6483 1 -14.1331 10.4019 1.76126 1 1.50167e-05 
6962 1 -13.6169 12.4345 0.419736 1 1.77467e-05 
6963 1 -12.1987 10.4034 0.196451 1 4.28276e-05 
6964 1 -11.2952 12.4367 1.31433 1 6.27326e-05 
7004 1 -9.87839 10.4067 1.09183 1 0.000170566 
7457 1 -8.97229 12.4387 2.20909 1 0.000182333 
7458 1 -7.55704 10.41 1.98746 1 0.000495694 
7459 1 -7.03785 12.4467 0.64442 1 0.0011652 
7461 1 -5.62468 10.424 0.426214 1 0.00290244 
7831 1 -4.71153 12.452 1.54528 1 0.00991154 
7870 1 -2.36419 12.4316 2.4674 1 0.147327 
7872 1 -3.29174 10.4358 1.33078 1 0.0560224 
7875 1 -0.804225 10.4351 2.15487 5 4.42973 
8139 1 -0.615327 12.4618 0.796733 5 5.33861 
8611 2 1.39662 12.0349 1.76127 5 10.2159 
8905 2 3.53397 12.046 0.86093 1 0.387688 
8910 2 5.37019 12.0672 2.48282 1 0.0312038 
9340 2 7.69965 12.069 1.57112 1 0.00334971 
9343 2 10.0221 12.0618 0.672188 1 0.000542878 
9807 2 11.9562 12.0554 2.23672 1 0.000128866 
9845 2 14.278 12.0528 1.34168 1 4.40453e-05 
10329 2 16.5994 12.0506 0.447054 1 1.14746e-05 
10334 2 18.5348 12.05 2.01185 1 5.43201e-06 
10850 2 20.8571 12.0494 1.11753 1 1.52147e-06 
10853 2 23.1796 12.049 0.223328 1 3.67251e-07 
473 4 -71.5584 14.4635 1.98325 5 30.976 
476 4 -69.6227 14.4635 0.41861 1 1.2028e-15 
871 4 -67.2998 14.4635 1.31269 1 7.99761e-16 
874 4 -64.9769 14.4635 2.20677 1 5.99921e-16 
1347 4 -63.0412 14.4635 0.64213 1 5.06294e-09 
1380 1 -60.7183 14.4635 1.53625 1 4.15048e-09 
1863 1 -58.3953 14.4636 2.43039 1 6.00222e-09 
1868 1 -56.4596 14.4637 0.865773 1 2.91867e-09 
2384 1 -54.1366 14.4637 1.75989 1 5.57042e-09 
2386 1 -52.2009 14.4639 0.195286 1 3.22828e-09 
2872 1 -49.878 14.4639 1.0894 1 2.41825e-09 
2906 1 -47.555 14.464 1.98352 1 4.27059e-09 
3390 1 -45.6193 14.4641 0.41892 1 7.12378e-09 
3392 1 -43.2964 14.4641 1.31308 1 5.21918e-09 
3909 1 -40.9735 14.4641 2.20726 1 3.56186e-09 
3911 1 -39.0377 14.4641 0.642732 1 2.70976e-09 
4395 1 -36.7148 14.464 1.53693 1 3.93399e-09 
4430 1 -34.3919 14.464 2.43111 1 2.67907e-09 
4916 1 -32.4562 14.464 0.866547 1 3.24393e-09 
4918 1 -30.1333 14.4641 1.76071 1 9.34544e-09 
5402 1 -28.1976 14.4641 0.196126 1 1.00533e-08 
5435 1 -25.8748 14.4641 1.09027 1 3.60355e-08 
5919 1 -23.552 14.4643 1.98441 1 1.4318e-07 
5922 1 -21.6163 14.4644 0.41972 1 2.5952e-07 
6440 1 -19.2937 14.4648 1.31385 1 1.11372e-06 
6443 1 -16.9712 14.4652 2.20805 1 3.53078e-06 
6927 1 -15.0361 14.466 0.643251 1 8.15563e-06 
6960 1 -12.7143 14.4674 1.53775 1 2.63586e-05 
7418 1 -10.3923 14.4685 2.4328 1 7.9315e-05 
7423 1 -8.46137 14.4739 0.868644 1 0.000311576 
7830 1 -6.14401 14.4778 1.76766 1 0.00193801 
7832 1 -4.22881 14.4963 0.207171 1 0.0143204 
8107 1 -1.94683 14.5043 1.13657 1 0.207859 
8612 2 0.353393 14.3681 2.09331 5 6.04131 
8615 2 2.6541 14.1131 2.05591 5 4.32251 
8942 2 4.92089 14.1056 1.14668 1 0.0686 
8945 2 7.20534 14.1052 0.229553 1 0.0060452 
9341 2 9.124 14.0948 1.79468 1 0.000835375 
9375 2 11.4423 14.0896 0.895722 1 0.000177949 
9846 2 13.3751 14.0853 2.46003 1 6.14029e-05 
10027 2 13.7617 14.0849 5.33704e-05 1 4.5353e-05 
9849 2 15.6968 14.0837 1.56501 1 2.01619e-05 
10366 2 18.0186 14.0823 0.670516 1 5.56188e-06 
10368 2 19.954 14.0819 2.23528 1 2.6764e-06 
10851 2 22.2765 14.0815 1.34102 1 7.69265e-07 
474 4 -71.0422 16.4958 0.64213 5 18.5856 
846 4 -68.7194 16.4958 1.53621 1 7.00399e-16 
869 4 -66.3965 16.4958 2.43029 1 9.00321e-16 
1346 4 -64.4607 16.4958 0.865651 1 7.00564e-16 
1348 4 -62.1378 16.4958 1.75973 1 1.41631e-08 
1835 1 -60.2021 16.4958 0.195137 1 3.85595e-09 
1864 1 -57.8792 16.4959 1.08927 1 8.82899e-09 
2351 1 -55.5562 16.496 1.98338 1 2.89782e-09 
2354 1 -53.6205 16.4961 0.418782 1 4.32731e-09 
2871 1 -51.2975 16.4962 1.31289 1 1.65709e-09 
2874 1 -48.9746 16.4962 2.20701 1 2.80934e-09 
3359 1 -47.0388 16.4963 0.642419 1 5.01072e-09 
3388 1 -44.7159 16.4964 1.53655 1 5.88544e-09 
3874 1 -42.393 16.4964 2.43072 1 5.53929e-09 
3879 1 -40.4573 16.4964 0.866174 1 1.58407e-09 
4394 1 -38.1344 16.4963 1.76037 1 3.37985e-09 
4396 1 -36.1986 16.4963 0.195821 1 5.50346e-09 
4884 1 -33.8757 16.4963 1.09001 1 2.10064e-09 
4914 1 -31.5529 16.4963 1.98418 1 4.81667e-09 
5401 1 -29.6171 16.4963 0.419602 1 9.8443e-09 
5403 1 -27.2943 16.4964 1.31377 1 2.4679e-08 
5918 1 -24.9715 16.4965 2.20791 1 6.79061e-08 
5920 1 -23.0358 16.4966 0.643245 1 1.36229e-07 
6407 1 -20.7131 16.4968 1.53738 1 5.41784e-07 
6438 1 -18.3904 16.4972 2.43156 1 1.74052e-06 
6926 1 -16.4552 16.4977 0.866805 1 4.46252e-06 
6928 1 -14.1331 16.4987 1.76126 1 1.50167e-05 
7390 1 -12.1987 16.5002 0.196451 1 4.28276e-05 
7419 1 -9.87839 16.5035 1.09183 1 0.000170566 
7797 1 -7.55704 16.5068 1.98746 1 0.000495695 
7800 1 -5.62468 16.5208 0.426214 1 0.00290244 
8106 1 -3.29174 16.5326 1.33078 1 0.0560224 
8109 1 -0.804225 16.532 2.15487 5 4.42973 
8643 2 1.78576 16.0312 0.62348 5 6.22111 
8645 2 3.89768 16.1621 2.22479 1 0.249096 
8943 2 6.28534 16.143 1.35737 1 0.0142721 
8973 2 8.60869 16.1328 0.452801 1 0.00139697 
9376 2 10.5399 16.1233 2.015 1 0.000312115 
9379 2 12.8604 16.1193 1.11885 1 0.000107273 
9877 2 15.1807 16.116 0.223652 1 2.58324e-05 
9879 2 17.1158 16.1151 1.78846 1 1.09884e-05 
10367 2 19.4378 16.1142 0.894033 1 2.98551e-06 
10372 2 21.3733 16.1139 2.45875 1 1.33988e-06 
10886 2 23.6959 16.1136 1.56452 1 4.00713e-07 
845 4 -70.1389 18.5281 1.75973 5 12.3904 
847 4 -68.2032 18.5281 0.19509 1 2.00565e-16 
1318 4 -65.8803 18.5281 1.08917 1 8.01041e-16 
1344 4 -63.5574 18.5281 1.98325 1 1.26385e-09 
1834 1 -61.6216 18.5281 0.418628 1 4.24995e-09 
1836 1 -59.2987 18.5281 1.31276 1 1.46528e-09 
2350 1 -56.9758 18.5282 2.20688 1 3.74621e-09 
2352 1 -55.04 18.5283 0.642274 1 2.49548e-09 
2842 1 -52.7171 18.5284 1.5364 1 2.12974e-09 
2869 1 -50.3942 18.5285 2.43051 1 2.44262e-09 
3358 1 -48.4584 18.5286 0.865899 1 1.9555e-09 
3360 1 -46.1355 18.5286 1.76003 1 6.46677e-09 
3850 1 -44.1997 18.5287 0.195447 1 4.67218e-09 
3875 1 -41.8768 18.5287 1.08962 1 4.6621e-09 
4365 1 -39.5539 18.5286 1.98381 1 4.0173e-09 
4368 1 -37.6182 18.5286 0.419273 1 3.48795e-09 
4883 1 -35.2953 18.5286 1.31347 1 1.92511e-09 
4886 1 -32.9724 18.5286 2.20765 1 2.90561e-09 
5374 1 -31.0367 18.5286 0.643072 1 4.10242e-09 
5399 1 -28.7138 18.5286 1.53724 1 1.33539e-08 
5887 1 -26.391 18.5287 2.4314 1 3.67222e-08 
5892 1 -24.4552 18.5287 0.866759 1 6.8311e-08 
6406 1 -22.1325 18.5289 1.7609 1 2.66116e-07 
6408 1 -20.1968 18.5291 0.19617 1 5.43816e-07 
6898 1 -17.8744 18.5296 1.09032 1 2.21551e-06 
6924 1 -15.552 18.5303 1.98458 1 7.25817e-06 
7389 1 -13.6169 18.5314 0.419736 1 1.77467e-05 
7391 1 -11.2952 18.5335 1.31433 1 6.27326e-05 
7796 1 -8.97229 18.5355 2.20909 1 0.000182333 
7798 1 -7.03785 18.5435 0.64442 1 0.0011652 
8077 1 -4.71153 18.5488 1.54528 1 0.00991154 
8104 1 -2.36419 18.5284 2.4674 1 0.147327 
8277 1 -0.615327 18.5586 0.796733 5 5.33861 
8444 2 1.39662 18.1317 1.76127 5 10.2159 
8448 2 2.6541 20.2099 2.05591 5 4.32251 
8644 2 3.53397 18.1428 0.86093 1 0.387688 
8649 2 5.37019 18.164 2.48282 1 0.0312038 
8669 2 4.92089 20.2025 1.14668 1 0.0686 
8672 2 7.20534 20.2021 0.229553 1 0.0060452 
8974 2 7.69965 18.1658 1.57112 1 0.00334971 
8975 2 9.124 20.1917 1.79468 1 0.000835375 
8977 2 10.0221 18.1586 0.672188 1 0.000542878 
8997 2 11.4423 20.1864 0.895722 1 0.000177949 
9377 2 11.9562 18.1522 2.23672 1 0.000128866 
9404 2 13.3751 20.1821 2.46003 1 6.1403e-05 
9589 2 13.7617 20.1817 5.33704e-05 1 4.5353e-05 
9403 2 14.278 18.1496 1.34168 1 4.40453e-05 
9407 2 15.6968 20.1805 1.56501 1 2.01619e-05 
9878 2 16.5994 18.1474 0.447054 1 1.14746e-05 
9883 2 18.5348 18.1469 2.01185 1 5.43201e-06 
9903 2 18.0186 20.1791 0.670516 1 5.56188e-06 
9905 2 19.954 20.1787 2.23528 1 2.6764e-06 
10396 2 20.8571 18.1462 1.11753 1 1.52147e-06 
10397 2 22.2765 20.1783 1.34102 1 7.69265e-07 
10399 2 23.1796 18.1458 0.223328 1 3.67251e-07 
830 4 -71.5584 20.5603 1.98325 5 30.976 
831 4 -71.0422 22.5926 0.64213 5 18.5856 
833 4 -69.6227 20.5603 0.41861 1 1.2028e-15 
1296 4 -68.7194 22.5926 1.53621 1 1.0004e-15 
1317 4 -67.2998 20.5603 1.31269 1 7.99761e-16 
1315 4 -66.3965 22.5926 2.43029 1 1.20032e-15 
1320 4 -64.9769 20.5603 2.20677 1 5.99921e-16 
1810 4 -64.4607 22.5926 0.865651 1 1.00056e-15 
1811 4 -63.0412 20.5603 0.64213 1 5.06166e-09 
1812 4 -62.1378 22.5926 1.75973 1 1.41643e-08 
1832 1 -60.7183 20.5604 1.53625 1 4.15148e-09 
2307 1 -60.2021 22.5926 0.195137 1 3.8559e-09 
2323 1 -58.3953 20.5604 2.43039 1 6.00234e-09 
2324 1 -57.8792 22.5927 1.08927 1 8.82892e-09 
2328 1 -56.4596 20.5605 0.865773 1 2.91873e-09 
2820 1 -55.5562 22.5928 1.98338 1 2.89783e-09 
2823 1 -53.6205 22.5929 0.418782 1 4.32731e-09 
2841 1 -54.1366 20.5606 1.75989 1 5.57043e-09 
2843 1 -52.2009 20.5607 0.195286 1 3.22831e-09 
3333 1 -51.2975 22.593 1.31289 1 1.6571e-09 
3334 1 -49.878 20.5608 1.0894 1 2.41827e-09 
3336 1 -48.9746 22.5931 2.20701 1 2.80934e-09 
3356 1 -47.555 20.5609 1.98352 1 4.27059e-09 
3830 1 -47.0388 22.5932 0.642419 1 5.01072e-09 
3847 1 -44.7159 22.5932 1.53655 1 5.88544e-09 
3849 1 -45.6193 20.5609 0.41892 1 7.12378e-09 
3851 1 -43.2964 20.5609 1.31308 1 5.21918e-09 
4341 1 -42.393 22.5932 2.43072 1 5.5393e-09 
4346 1 -40.4573 22.5932 0.866174 1 1.58406e-09 
4364 1 -40.9735 20.5609 2.20726 1 3.56185e-09 
4366 1 -39.0377 20.5609 0.642732 1 2.70976e-09 
4857 1 -38.1344 22.5931 1.76037 1 3.37984e-09 
4858 1 -36.7148 20.5608 1.53693 1 3.93399e-09 
4859 1 -36.1986 22.5931 0.195821 1 5.50347e-09 
4881 1 -34.3919 20.5608 2.43111 1 2.67905e-09 
5353 1 -33.8757 22.5931 1.09001 1 2.10064e-09 
5371 1 -31.5529 22.5931 1.98418 1 4.81667e-09 
5373 1 -32.4562 20.5608 0.866547 1 3.24393e-09 
5375 1 -30.1333 20.5609 1.76071 1 9.34544e-09 
5866 1 -29.6171 22.5931 0.419602 1 9.84431e-09 
5867 1 -28.1976 20.5609 0.196126 1 1.00533e-08 
5868 1 -27.2943 22.5932 1.31377 1 2.4679e-08 
5888 1 -25.8748 20.561 1.09027 1 3.60355e-08 
6380 1 -24.9715 22.5933 2.20791 1 6.79061e-08 
6381 1 -23.552 20.5611 1.98441 1 1.4318e-07 
6382 1 -23.0358 22.5934 0.643245 1 1.36229e-07 
6384 1 -21.6163 20.5612 0.41972 1 2.5952e-07 
6876 1 -20.7131 22.5937 1.53738 1 5.41784e-07 
6897 1 -19.2937 20.5616 1.31385 1 1.11372e-06 
6895 1 -18.3904 22.594 2.43156 1 1.74052e-06 
6900 1 -16.9712 20.5621 2.20805 1 3.53078e-06 
7365 1 -16.4552 22.5945 0.866805 1 4.46252e-06 
7366 1 -15.0361 20.5628 0.643251 1 8.15564e-06 
7367 1 -14.1331 22.5955 1.76126 1 1.50167e-05 
7387 1 -12.7143 20.5643 1.53775 1 2.63586e-05 
7753 1 -12.1987 22.597 0.196451 1 4.28276e-05 
7769 1 -10.3923 20.5654 2.4328 1 7.9315e-05 
7770 1 -9.87839 22.6003 1.09183 1 0.000170566 
7774 1 -8.46137 20.5707 0.868644 1 0.000311576 
8055 1 -7.55704 22.6037 1.98746 1 0.000495694 
8058 1 -5.62468 22.6176 0.426214 1 0.00290244 
8076 1 -6.14401 20.5746 1.76766 1 0.00193801 
8078 1 -4.22881 20.5931 0.207171 1 0.0143204 
8256 1 -3.29174 22.6294 1.33078 1 0.0560224 
8257 1 -1.94683 20.6011 1.13657 1 0.207859 
8259 1 -0.804225 22.6288 2.15487 5 4.42973 
8445 2 0.353393 20.4649 2.09331 5 6.04131 
8464 2 1.78576 22.128 0.62348 5 6.22111 
8466 2 3.89768 22.2589 2.22479 1 0.249096 
8670 2 6.28534 22.2399 1.35737 1 0.0142721 
8688 2 8.60869 22.2296 0.452801 1 0.00139697 
8998 2 10.5399 22.2201 2.015 1 0.000312115 
9001 2 12.8604 22.2161 1.11885 1 0.000107274 
9423 2 15.1807 22.2128 0.223652 1 2.58324e-05 
9425 2 17.1158 22.212 1.78846 1 1.09884e-05 
9904 2 19.4378 22.211 0.894033 1 2.98551e-06 
9909 2 21.3733 22.2107 2.45875 1 1.33988e-06 
10420 2 23.6959 22.2104 1.56452 1 4.00713e-07 
1295 4 -70.1389 24.6249 1.75973 5 12.3904 
1297 4 -68.2032 24.6249 0.19509 1 2.00565e-16 
1794 4 -65.8803 24.6249 1.08917 1 8.01041e-16 
1808 4 -63.5574 24.6249 1.98325 1 1.26392e-09 
2306 1 -61.6216 24.6249 0.418628 1 4.24993e-09 
2308 1 -59.2987 24.6249 1.31276 1 1.46524e-09 
2819 1 -56.9758 24.625 2.20688 1 3.7462e-09 
2821 1 -55.04 24.6251 0.642274 1 2.49548e-09 
3316 1 -52.7171 24.6252 1.5364 1 2.12971e-09 
3331 1 -50.3942 24.6253 2.43051 1 2.44262e-09 
3829 1 -48.4584 24.6254 0.865899 1 1.9555e-09 
3831 1 -46.1355 24.6254 1.76003 1 6.46677e-09 
4329 1 -44.1997 24.6255 0.195447 1 4.67218e-09 
4342 1 -41.8768 24.6255 1.08962 1 4.6621e-09 
4840 1 -39.5539 24.6254 1.98381 1 4.0173e-09 
4843 1 -37.6182 24.6254 0.419273 1 3.48799e-09 
5352 1 -35.2953 24.6254 1.31347 1 1.92511e-09 
5355 1 -32.9724 24.6254 2.20765 1 2.90561e-09 
5851 1 -31.0367 24.6254 0.643072 1 4.10242e-09 
5864 1 -28.7138 24.6255 1.53724 1 1.33539e-08 
6361 1 -26.391 24.6255 2.4314 1 3.67222e-08 
6366 1 -24.4552 24.6256 0.866759 1 6.8311e-08 
6875 1 -22.1325 24.6258 1.7609 1 2.66116e-07 
6877 1 -20.1968 24.6259 0.19617 1 5.43816e-07 
7349 1 -17.8744 24.6264 1.09032 1 2.21551e-06 
7363 1 -15.552 24.6271 1.98458 1 7.25817e-06 
7752 1 -13.6169 24.6282 0.419736 1 1.77467e-05 
7754 1 -11.2952 24.6304 1.31433 1 6.27326e-05 
8054 1 -8.97229 24.6323 2.20909 1 0.000182333 
8056 1 -7.03785 24.6404 0.64442 1 0.0011652 
8239 1 -4.71153 24.6456 1.54528 1 0.00991154 
8254 1 -2.36419 24.6252 2.4674 1 0.147327 
8334 1 -0.615327 24.6555 0.796733 5 5.33861 
8360 2 1.39662 24.2286 1.76127 5 10.2159 
8465 2 3.53397 24.2396 0.86093 1 0.387688 
8470 2 5.37019 24.2609 2.48282 1 0.0312038 
8689 2 7.69965 24.2626 1.57112 1 0.00334971 
8692 2 10.0221 24.2554 0.672188 1 0.000542878 
8999 2 11.9562 24.249 2.23672 1 0.000128866 
9013 2 14.278 24.2464 1.34168 1 4.40453e-05 
9424 2 16.5994 24.2442 0.447054 1 1.14746e-05 
9429 2 18.5348 24.2437 2.01185 1 5.43201e-06 
9921 2 20.8571 24.243 1.11753 1 1.52147e-06 
9924 2 23.1796 24.2426 0.223328 1 3.67251e-07 
1283 4 -71.5584 26.6571 1.98325 5 30.976 
1286 4 -69.6227 26.6571 0.41861 1 9.02804e-16 
1793 4 -67.2998 26.6571 1.31269 1 4.99761e-16 
1796 4 -64.9769 26.6571 2.20677 1 2.99921e-16 
2295 4 -63.0412 26.6571 0.64213 1 5.06215e-09 
2304 1 -60.7183 26.6572 1.53625 1 4.15068e-09 
2804 1 -58.3953 26.6572 2.43039 1 6.00221e-09 
2809 1 -56.4596 26.6573 0.865773 1 2.91865e-09 
3315 1 -54.1366 26.6574 1.75989 1 5.57043e-09 
3317 1 -52.2009 26.6575 0.195286 1 3.22831e-09 
3817 1 -49.878 26.6576 1.0894 1 2.41826e-09 
3827 1 -47.555 26.6577 1.98352 1 4.2706e-09 
4328 1 -45.6193 26.6577 0.41892 1 7.12379e-09 
4330 1 -43.2964 26.6577 1.31308 1 5.21919e-09 
4839 1 -40.9735 26.6577 2.20726 1 3.56184e-09 
4841 1 -39.0377 26.6577 0.642732 1 2.70976e-09 
5339 1 -36.7148 26.6577 1.53693 1 3.93398e-09 
5350 1 -34.3919 26.6577 2.43111 1 2.67906e-09 
5850 1 -32.4562 26.6577 0.866547 1 3.24394e-09 
5852 1 -30.1333 26.6577 1.76071 1 9.34544e-09 
6353 1 -28.1976 26.6577 0.196126 1 1.00533e-08 
6362 1 -25.8748 26.6578 1.09027 1 3.60355e-08 
6862 1 -23.552 26.6579 1.98441 1 1.4318e-07 
6865 1 -21.6163 26.658 0.41972 1 2.5952e-07 
7348 1 -19.2937 26.6584 1.31385 1 1.11372e-06 
7351 1 -16.9712 26.6589 2.20805 1 3.53078e-06 
7741 1 -15.0361 26.6596 0.643251 1 8.15564e-06 
7750 1 -12.7143 26.6611 1.53775 1 2.63586e-05 
8039 1 -10.3923 26.6622 2.4328 1 7.9315e-05 
8044 1 -8.46137 26.6675 0.868644 1 0.000311576 
8238 1 -6.14401 26.6714 1.76766 1 0.00193801 
8240 1 -4.22881 26.69 0.207171 1 0.0143204 
8326 1 -1.94683 26.6979 1.13657 1 0.207859 
8361 2 0.353393 26.5617 2.09331 5 6.04131 
8364 2 2.6541 26.3067 2.05591 5 4.32251 
8478 2 4.92089 26.2993 1.14668 1 0.0686 
8481 2 7.20534 26.2989 0.229553 1 0.0060452 
8690 2 9.124 26.2885 1.79468 1 0.000835375 
8700 2 11.4423 26.2832 0.895722 1 0.000177949 
9014 2 13.3751 26.2789 2.46003 1 6.14029e-05 
9187 2 13.7617 26.2786 5.33705e-05 1 4.5353e-05 
9017 2 15.6968 26.2774 1.56501 1 2.01619e-05 
9437 2 18.0186 26.2759 0.670516 1 5.56188e-06 
9439 2 19.954 26.2756 2.23528 1 2.6764e-06 
9922 2 22.2765 26.2751 1.34102 1 7.69265e-07 
1284 4 -71.0422 28.6894 0.64213 5 18.5856 
1786 4 -68.7194 28.6894 1.53621 1 9.992e-16 
1791 4 -66.3965 28.6894 2.43029 1 1.19912e-15 
2294 4 -64.4607 28.6894 0.865651 1 9.99365e-16 
2296 4 -62.1378 28.6894 1.75973 1 1.41611e-08 
2801 1 -60.2021 28.6895 0.195137 1 3.85643e-09 
2805 1 -57.8792 28.6895 1.08927 1 8.82897e-09 
3308 1 -55.5562 28.6896 1.98338 1 2.89781e-09 
3309 1 -53.6205 28.6897 0.418782 1 4.32729e-09 
3816 1 -51.2975 28.6898 1.31289 1 1.65709e-09 
3819 1 -48.9746 28.6899 2.20701 1 2.80937e-09 
4322 1 -47.0388 28.69 0.642419 1 5.01074e-09 
4326 1 -44.7159 28.69 1.53655 1 5.88544e-09 
4830 1 -42.393 28.69 2.43072 1 5.53928e-09 
4833 1 -40.4573 28.69 0.866174 1 1.58407e-09 
5338 1 -38.1344 28.6899 1.76037 1 3.37987e-09 
5340 1 -36.1986 28.6899 0.195821 1 5.50347e-09 
5844 1 -33.8757 28.6899 1.09001 1 2.10064e-09 
5848 1 -31.5529 28.69 1.98418 1 4.81667e-09 
6352 1 -29.6171 28.69 0.419602 1 9.84432e-09 
6354 1 -27.2943 28.69 1.31377 1 2.46789e-08 
6861 1 -24.9715 28.6901 2.20791 1 6.79061e-08 
6863 1 -23.0358 28.6902 0.643245 1 1.36229e-07 
7341 1 -20.7131 28.6905 1.53738 1 5.41784e-07 
7346 1 -18.3904 28.6908 2.43156 1 1.74052e-06 
7740 1 -16.4552 28.6914 0.866805 1 4.46252e-06 
7742 1 -14.1331 28.6923 1.76126 1 1.50167e-05 
8036 1 -12.1987 28.6939 0.196451 1 4.28276e-05 
8040 1 -9.87839 28.6971 1.09183 1 0.000170566 
8231 1 -7.55704 28.7005 1.98746 1 0.000495694 
8232 1 -5.62468 28.7144 0.426214 1 0.00290244 
8325 1 -3.29174 28.7263 1.33078 1 0.0560224 
8328 1 -0.804225 28.7256 2.15487 5 4.42973 
8368 2 1.78576 28.2248 0.62348 5 6.22111 
9190 2 1.39662 30.3254 1.76127 5 10.2159 