ITEM: TIMESTEP
0
ITEM: NUMBER OF ATOMS
33108
ITEM: BOX BOUNDS ss pp pp
-65.0092 113.942
0 41.5748
0 48.0064
ITEM: ATOMS id type x y z c_cna c_csd 
1 4 -65.0091 1.56464 1.67764 5 18.5856 
3 4 -62.9768 0.22352 1.16145 1 1.10364e-15 
16 4 -60.9445 1.34112 0.258099 1 1.10594e-15 
29 4 -58.9122 1.56464 1.67764 1 1.09968e-15 
31 4 -56.88 0.22352 1.16145 1 2.9179e-09 
84 1 -54.8477 1.34112 0.258097 1 1.68048e-10 
109 1 -52.8154 1.56464 1.67764 1 2.45459e-10 
111 1 -50.7831 0.223518 1.16144 1 4.9795e-10 
233 1 -48.7508 1.34112 0.258096 1 3.25603e-10 
270 1 -46.7185 1.56464 1.67763 1 1.06599e-09 
272 1 -44.6862 0.223521 1.16144 1 1.00837e-09 
495 1 -42.6539 1.34112 0.258103 1 1.91191e-09 
544 1 -40.6216 1.56464 1.67765 1 5.66343e-10 
546 1 -38.5894 0.223524 1.16145 1 1.01957e-09 
898 1 -36.5571 1.34112 0.258096 1 4.72734e-10 
959 1 -34.5248 1.56463 1.67764 1 1.07765e-09 
961 1 -32.4926 0.223515 1.16144 1 7.44061e-10 
1443 1 -30.4603 1.34112 0.258092 1 4.35787e-10 
1507 1 -28.428 1.56464 1.67764 1 1.60906e-10 
1509 1 -26.3957 0.223525 1.16144 1 7.68576e-10 
2116 1 -24.3634 1.34113 0.258096 1 3.54573e-10 
2180 1 -22.3311 1.56464 1.67763 1 1.19846e-09 
2182 1 -20.2989 0.223529 1.16143 1 8.18894e-09 
2913 1 -18.2666 1.34115 0.2581 1 4.78763e-08 
2977 1 -16.2342 1.56473 1.67764 1 2.69214e-07 
2979 1 -14.2022 0.223665 1.1614 1 1.21882e-06 
3830 1 -12.1697 1.34144 0.25813 1 6.24662e-06 
3894 1 -10.137 1.56589 1.67739 1 4.37597e-05 
3896 1 -8.10753 0.225361 1.16035 1 0.00019374 
4843 1 -6.07144 1.34504 0.258352 1 0.00113567 
4907 1 -4.03866 1.58162 1.68148 1 0.0137992 
4909 1 -2.03815 0.289033 1.11657 5 3.73751 
12308 2 0.118626 2.22749 1.82923 5 1.8668 
12309 2 2.15544 0.895452 2.32824 1 0.00972315 
12310 2 2.17268 2.46832 0.398241 1 0.0112077 
12312 2 2.19025 0.00490172 0.00996393 1 0.0222357 
12313 2 4.20332 1.1205 0.909163 1 0.00134905 
12675 2 6.23063 2.23661 1.80925 1 0.000312823 
12676 2 8.2636 0.894449 2.3234 1 3.66888e-05 
12677 2 8.26419 2.45894 0.388067 1 2.52394e-05 
12679 2 8.26628 5.3324e-05 0.000384118 1 4.89652e-05 
12680 2 10.2968 1.11782 0.903722 1 6.3345e-06 
13180 2 12.3288 2.23536 1.80684 1 1.39396e-06 
13181 2 14.3612 0.894149 2.32292 1 1.87217e-07 
13182 2 14.3611 2.45876 0.387199 1 1.7333e-07 
13184 2 14.3613 1.98201e-05 1.17013e-05 1 2.71157e-07 
13185 2 16.3934 1.11763 0.90336 1 3.51344e-08 
13823 2 18.4257 2.23521 1.80669 1 4.431e-09 
13824 2 20.4579 0.894083 2.32288 1 1.13815e-09 
13825 2 20.4579 2.45872 0.387145 1 3.04067e-09 
13828 2 22.4902 1.1176 0.90334 1 9.68176e-10 
4 4 -65.0091 4.02336 1.29049 5 18.5856 
7 4 -62.9768 5.14097 0.387148 1 1.40556e-15 
15 4 -62.9768 2.68224 0.774297 1 8.00089e-16 
17 4 -60.9445 2.90576 2.19384 1 9.99963e-16 
60 4 -58.9122 4.02336 1.29049 1 8.02088e-16 
63 4 -56.88 5.14097 0.387148 1 3.27986e-09 
83 4 -56.88 2.68224 0.774297 1 3.27994e-09 
85 1 -54.8477 2.90576 2.19384 1 1.70006e-10 
197 1 -52.8154 4.02336 1.29049 1 2.62122e-10 
200 1 -50.7831 5.14096 0.387151 1 3.91247e-10 
232 1 -50.7831 2.68224 0.774293 1 3.91223e-10 
234 1 -48.7508 2.90576 2.19384 1 3.45007e-10 
447 1 -46.7184 4.02336 1.29049 1 1.54123e-09 
450 1 -44.6862 5.14096 0.38715 1 2.07351e-09 
494 1 -44.6862 2.68224 0.774294 1 2.07347e-09 
496 1 -42.6539 2.90577 2.19384 1 1.31792e-09 
838 1 -40.6216 4.02337 1.29049 1 3.31074e-10 
841 1 -38.5894 5.14097 0.38715 1 6.69026e-10 
897 1 -38.5894 2.68224 0.774298 1 6.69024e-10 
899 1 -36.5571 2.90575 2.19384 1 1.26841e-09 
1374 1 -34.5248 4.02336 1.29049 1 1.64304e-09 
1377 1 -32.4926 5.14096 0.387151 1 7.16689e-10 
1442 1 -32.4926 2.68224 0.774292 1 7.1669e-10 
1444 1 -30.4603 2.90576 2.19384 1 4.59255e-10 
2047 1 -28.428 4.02336 1.29049 1 5.59127e-10 
2050 1 -26.3957 5.14097 0.387148 1 5.40063e-10 
2115 1 -26.3957 2.68224 0.774297 1 5.4006e-10 
2117 1 -24.3634 2.90576 2.19384 1 3.05323e-10 
2844 1 -22.3311 4.02336 1.29049 1 1.47715e-09 
2847 1 -20.2988 5.14096 0.387142 1 7.0206e-09 
2912 1 -20.2988 2.68225 0.774294 1 7.02058e-09 
2914 1 -18.2665 2.90578 2.19384 1 3.68071e-08 
3761 1 -16.2342 4.0234 1.29047 1 2.03702e-07 
3764 1 -14.2017 5.14092 0.386987 1 1.44337e-06 
3829 1 -14.2017 2.68241 0.774337 1 1.44337e-06 
3831 1 -12.1692 2.90618 2.19392 1 7.71797e-06 
4774 1 -10.1358 4.02366 1.29027 1 3.8676e-05 
4777 1 -8.10093 5.13986 0.385451 1 0.000326769 
4842 1 -8.10093 2.68427 0.774185 1 0.000326769 
4844 1 -6.0701 2.91097 2.19585 1 0.00136344 
5851 1 -4.02007 4.02344 1.2948 1 0.0137959 
5854 1 -1.9739 5.11201 0.399504 5 1.00419 
5919 1 -1.9739 2.68602 0.743046 5 1.00419 
12306 2 0.14249 4.75681 2.1365 5 4.02863 
12657 2 2.17268 4.92225 0.760438 1 0.0112077 
12658 2 4.20171 3.58075 1.29236 1 0.00103076 
12673 2 6.23389 4.69573 2.19345 1 0.000151594 
13150 2 8.26419 4.91813 0.773649 1 2.52394e-05 
13151 2 10.2964 3.57662 1.29062 1 4.43597e-06 
13178 2 12.329 4.69401 2.19379 1 6.05868e-07 
13781 2 14.3611 4.91747 0.774238 1 1.7333e-07 
13782 2 16.3934 3.57634 1.2905 1 3.58434e-08 
13821 2 18.4257 4.69392 2.19384 1 5.1298e-09 
14550 2 20.4579 4.91744 0.774297 1 3.04068e-09 
14551 2 22.4902 3.57632 1.29049 1 1.27863e-09 
5 4 -65.0091 6.48209 0.903346 5 18.5856 
43 4 -62.9768 6.70561 2.32289 1 1.20004e-15 
46 4 -62.9768 7.59969 4.51688e-10 1 4.00947e-16 
59 4 -60.9445 5.36449 1.80669 1 1.19997e-15 
61 4 -58.9122 6.48209 0.903346 1 5.00086e-16 
168 4 -56.88 6.70561 2.32289 1 2.91775e-09 
171 4 -56.88 7.59969 4.51688e-10 1 3.02738e-09 
196 1 -54.8477 5.36448 1.80669 1 1.68046e-10 
198 1 -52.8154 6.48208 0.903349 1 2.45528e-10 
406 1 -50.7831 6.70561 2.32289 1 4.97976e-10 
409 1 -50.7831 7.59969 1.02772e-06 1 3.3238e-10 
446 1 -48.7508 5.36448 1.80669 1 3.25605e-10 
448 1 -46.7185 6.48208 0.90335 1 1.06598e-09 
785 1 -44.6862 6.7056 2.32289 1 1.00837e-09 
837 1 -42.6539 5.36449 1.80669 1 1.9119e-09 
839 1 -40.6216 6.48209 0.903341 1 5.66341e-10 
1309 1 -38.5894 6.70561 2.32288 1 1.01957e-09 
1373 1 -36.5571 5.36448 1.80669 1 4.72741e-10 
1375 1 -34.5248 6.48209 0.903353 1 1.07764e-09 
1978 1 -32.4926 6.70561 2.3229 1 7.44061e-10 
1981 1 -32.4926 7.59969 4.79268e-06 1 3.48936e-10 
2046 1 -30.4603 5.36448 1.8067 1 4.35788e-10 
2048 1 -28.428 6.48208 0.903351 1 1.60906e-10 
2775 1 -26.3957 6.7056 2.32289 1 7.68573e-10 
2778 1 -26.3957 7.59968 2.9962e-06 1 4.41204e-10 
2843 1 -24.3634 5.36448 1.80669 1 3.54574e-10 
2845 1 -22.3311 6.48208 0.903349 1 1.19846e-09 
3692 1 -20.2989 6.70559 2.32289 1 8.18894e-09 
3695 1 -20.2989 7.59968 4.84048e-06 1 5.0328e-09 
3760 1 -18.2666 5.36447 1.80667 1 4.78763e-08 
3762 1 -16.2342 6.48204 0.903269 1 2.69214e-07 
4705 1 -14.2022 6.7055 2.32279 1 1.21882e-06 
4773 1 -12.1697 5.36435 1.8064 1 6.24662e-06 
4775 1 -10.137 6.48124 0.902396 1 4.37597e-05 
5782 1 -8.10753 6.70374 2.32184 1 0.00019374 
5850 1 -6.07144 5.36274 1.80317 1 0.00113567 
5852 1 -4.03866 6.47692 0.886725 1 0.0137992 
6883 1 -2.03815 6.63398 2.28859 5 3.73751 
12648 2 0.118626 6.28194 0.253508 5 1.8668 
12655 2 2.15544 7.38011 1.15758 1 0.00972315 
12659 2 4.20332 6.03863 1.67222 1 0.00134905 
13129 2 6.23063 6.26008 0.255603 1 0.000312823 
13148 2 8.2636 7.37643 1.16087 1 3.66888e-05 
13152 2 10.2968 6.03526 1.67727 1 6.3345e-06 
13748 2 12.3288 6.25862 0.257887 1 1.39396e-06 
13779 2 14.3612 7.37615 1.16137 1 1.87217e-07 
13783 2 16.3934 6.03504 1.67761 1 3.51345e-08 
14505 2 18.4257 6.25856 0.258089 1 4.43099e-09 
14548 2 20.4579 7.37616 1.16145 1 1.13815e-09 
14552 2 22.4902 6.03504 1.67764 1 9.68182e-10 
36 4 -65.0091 8.94081 0.516198 5 18.5856 
44 4 -62.9768 9.16433 1.93574 1 1.20297e-15 
47 4 -60.9445 7.82321 1.41954 1 1.20208e-15 
148 4 -60.9445 10.2819 1.0324 1 6.98773e-16 
149 4 -58.9122 8.94081 0.516198 1 1.00517e-15 
169 4 -56.88 9.16433 1.93574 1 3.0244e-09 
172 1 -54.8477 7.82321 1.41954 1 8.35842e-11 
374 1 -54.8477 10.2819 1.0324 1 1.17627e-10 
375 1 -52.8154 8.94081 0.516202 1 3.54485e-10 
407 1 -50.7831 9.16433 1.93574 1 1.59892e-10 
410 1 -48.7508 7.8232 1.41955 1 6.28535e-10 
741 1 -48.7508 10.2819 1.0324 1 5.11701e-10 
742 1 -46.7185 8.9408 0.516199 1 6.58258e-10 
786 1 -44.6862 9.16432 1.93574 1 1.19446e-09 
789 1 -42.6539 7.82321 1.41954 1 9.4775e-10 
1253 1 -42.6539 10.2819 1.03239 1 9.44859e-10 
1254 1 -40.6216 8.94082 0.516192 1 6.60952e-10 
1310 1 -38.5894 9.16434 1.93574 1 7.95612e-10 
1313 1 -36.5571 7.82322 1.41954 1 9.53623e-10 
1911 1 -36.5571 10.2819 1.03239 1 1.88278e-09 
1912 1 -34.5248 8.94082 0.516199 1 1.06397e-09 
1979 1 -32.4926 9.16433 1.93574 1 2.64741e-10 
1982 1 -30.4603 7.82321 1.41955 1 4.88539e-10 
2708 1 -30.4603 10.2819 1.0324 1 3.05658e-10 
2709 1 -28.428 8.9408 0.516203 1 4.33311e-10 
2776 1 -26.3957 9.16433 1.93574 1 6.9759e-10 
2779 1 -24.3634 7.8232 1.41955 1 9.72841e-10 
3625 1 -24.3634 10.2819 1.0324 1 6.18802e-10 
3626 1 -22.3312 8.9408 0.516203 1 1.47357e-09 
3693 1 -20.2989 9.16431 1.93575 1 6.228e-09 
3696 1 -18.2666 7.82317 1.41955 1 3.73142e-08 
4638 1 -18.2666 10.2819 1.03241 1 4.02177e-08 
4639 1 -16.2343 8.94072 0.516217 1 1.99923e-07 
4706 1 -14.202 9.16412 1.93583 1 1.10859e-06 
4709 1 -12.1697 7.82279 1.41937 1 4.19352e-06 
5715 1 -12.1699 10.2816 1.03275 1 6.46561e-06 
5716 1 -10.1374 8.94029 0.516555 1 1.694e-05 
5783 1 -8.10497 9.16228 1.93749 1 0.000245187 
5786 1 -6.07607 7.81802 1.41724 1 0.000960605 
6816 1 -6.0758 10.2773 1.03858 1 0.00165711 
6817 1 -4.04446 8.93209 0.518206 1 0.00844232 
6884 1 -1.99196 9.14292 1.91949 5 3.50943 
12649 2 0.0956576 8.73156 0.642679 1 0.714967 
13125 2 2.15556 9.82386 1.55647 1 0.0154243 
13126 2 4.1966 8.49112 2.06616 1 0.0011381 
13127 2 4.19229 10.0554 0.130661 1 0.00166074 
13130 2 6.22721 8.71627 0.64494 1 0.000349445 
13744 2 8.26364 9.83376 1.54857 1 5.40654e-05 
13745 2 10.2965 8.49354 2.06484 1 5.15842e-06 
13746 2 10.2964 10.0582 0.129144 1 6.05625e-06 
13749 2 12.3287 8.71722 0.64524 1 6.75724e-07 
14501 2 14.3611 9.83482 1.54862 1 1.95593e-07 
14502 2 16.3934 8.49375 2.06479 1 2.45378e-08 
14503 2 16.3934 10.0584 0.129065 1 3.2751e-08 
14506 2 18.4257 8.71728 0.645247 1 4.08732e-09 
15396 2 20.458 9.83489 1.5486 1 6.54524e-10 
15397 2 22.4902 8.49377 2.06479 1 3.4128e-10 
15398 2 22.4902 10.0584 0.12905 1 8.3188e-10 
37 4 -65.0091 11.3995 0.129049 5 18.5856 
38 4 -65.0091 10.5055 2.45194 5 18.5856 
132 4 -65.0091 12.9642 2.06479 5 18.5856 
133 4 -62.9768 11.6231 1.54859 1 1.60309e-15 
136 4 -60.9445 12.7407 0.645247 1 7.98249e-16 
150 4 -58.9122 11.3995 0.129049 1 4.03415e-16 
151 4 -58.9122 10.5055 2.45194 1 1.00304e-15 
346 4 -58.9122 12.9642 2.06479 1 7.00002e-16 
347 4 -56.88 11.6231 1.54859 1 2.8851e-09 
350 1 -54.8477 12.7407 0.645246 1 1.29719e-10 
376 1 -52.8154 11.3995 0.129051 1 2.74833e-10 
377 1 -52.8154 10.5054 2.45194 1 1.7951e-10 
701 1 -52.8154 12.9642 2.06479 1 2.03474e-10 
702 1 -50.7831 11.6231 1.54859 1 9.8105e-11 
705 1 -48.7508 12.7407 0.645245 1 2.66261e-10 
743 1 -46.7185 11.3995 0.129049 1 9.24317e-10 
744 1 -46.7185 10.5054 2.45194 1 3.87012e-10 
1201 1 -46.7185 12.9642 2.06478 1 8.30962e-10 
1202 1 -44.6862 11.6231 1.54859 1 1.5617e-09 
1205 1 -42.6539 12.7407 0.645256 1 2.20921e-09 
1255 1 -40.6216 11.3995 0.12905 1 3.93794e-10 
1256 1 -40.6216 10.5055 2.45194 1 8.32956e-10 
1847 1 -40.6216 12.9642 2.0648 1 1.1452e-09 
1848 1 -38.5894 11.6231 1.5486 1 5.33292e-10 
1851 1 -36.5571 12.7407 0.645245 1 6.28737e-10 
1913 1 -34.5248 11.3995 0.129045 1 1.23468e-09 
1914 1 -34.5248 10.5055 2.45194 1 9.40537e-10 
2639 1 -34.5248 12.9642 2.06479 1 4.2949e-10 
2640 1 -32.4926 11.6231 1.54859 1 3.1927e-10 
2643 1 -30.4603 12.7406 0.645242 1 5.0537e-10 
2710 1 -28.428 11.3995 0.129049 1 2.87267e-10 
2711 1 -28.428 10.5054 2.45194 1 2.86008e-10 
3556 1 -28.428 12.9642 2.06479 1 2.13855e-10 
3557 1 -26.3957 11.6231 1.54859 1 6.66754e-10 
3560 1 -24.3634 12.7407 0.645241 1 1.06999e-09 
3627 1 -22.3312 11.3995 0.129049 1 9.6605e-10 
3628 1 -22.3311 10.5054 2.45194 1 1.11648e-09 
4569 1 -22.3312 12.9642 2.06478 1 2.02566e-09 
4570 1 -20.2989 11.623 1.54858 1 4.75586e-09 
4573 1 -18.2667 12.7406 0.645226 1 3.93105e-08 
4640 1 -16.2345 11.3995 0.129054 1 2.03236e-07 
4641 1 -16.2344 10.5054 2.45196 1 1.63553e-07 
5646 1 -16.2344 12.9642 2.06473 1 1.46168e-07 
5647 1 -14.2023 11.6229 1.54862 1 1.15233e-06 
5650 1 -12.1707 12.7407 0.645228 1 1.03648e-05 
5717 1 -10.1391 11.3993 0.129707 1 3.6759e-05 
5718 1 -10.1368 10.5049 2.45258 1 4.39926e-05 
6747 1 -10.1383 12.9644 2.06426 1 2.437e-05 
6748 1 -8.10637 11.6224 1.54981 1 0.000163899 
6751 1 -6.08156 12.7409 0.64593 1 0.00145147 
6818 1 -4.05875 11.3892 0.145811 1 0.0210765 
6819 1 -4.02495 10.4987 2.45649 1 0.0135394 
7815 1 -4.04708 12.9777 2.06182 1 0.0115225 
7816 1 -2.01734 11.6775 1.60204 5 1.80547 
13116 2 0.146407 11.1295 0.969865 5 3.50783 
13123 2 2.17963 12.2747 1.9336 1 0.0167949 
13128 2 4.20347 10.9463 2.45096 1 0.00144806 
13722 2 4.20866 12.5151 0.515744 1 0.00151632 
13723 2 6.23331 11.1736 1.03161 1 0.000245778 
13742 2 8.26523 12.293 1.93521 1 2.86419e-05 
13747 2 10.2966 10.9521 2.45187 1 5.05484e-06 
14467 2 10.2975 12.517 0.516158 1 1.06158e-05 
14468 2 12.329 11.1758 1.03243 1 1.26272e-06 
14499 2 14.3612 12.2936 1.93573 1 1.0085e-07 
14504 2 16.3934 10.9525 2.45194 1 1.83086e-08 
15350 2 16.3935 12.5171 0.516201 1 3.86851e-08 
15351 2 18.4257 11.176 1.0324 1 4.05496e-09 
15394 2 20.4579 12.2936 1.93574 1 6.02554e-10 
15399 2 22.4902 10.9525 2.45194 1 3.48152e-10 
16361 2 22.4902 12.5171 0.516194 1 2.85675e-10 
128 4 -65.0091 15.4229 1.67764 5 18.5856 
134 4 -62.9768 14.0818 1.16145 1 8.01048e-16 
329 4 -60.9445 15.1994 0.258099 1 9.04694e-16 
330 4 -58.9122 15.4229 1.67764 1 8.98925e-16 
348 4 -56.88 14.0818 1.16145 1 2.91772e-09 
672 1 -54.8477 15.1994 0.258097 1 1.68026e-10 
673 1 -52.8154 15.4229 1.67764 1 2.45463e-10 
703 1 -50.7831 14.0818 1.16144 1 4.97952e-10 
1160 1 -48.7508 15.1994 0.258096 1 3.25595e-10 
1161 1 -46.7185 15.4229 1.67763 1 1.06599e-09 
1203 1 -44.6862 14.0818 1.16144 1 1.00838e-09 
1794 1 -42.6539 15.1994 0.258103 1 1.91189e-09 
1795 1 -40.6216 15.4229 1.67765 1 5.66345e-10 
1849 1 -38.5894 14.0818 1.16145 1 1.01957e-09 
2575 1 -36.5571 15.1994 0.258096 1 4.72737e-10 
2576 1 -34.5248 15.4229 1.67764 1 1.07766e-09 
2641 1 -32.4926 14.0818 1.16144 1 7.44062e-10 
3491 1 -30.4603 15.1994 0.258092 1 4.35789e-10 
3492 1 -28.428 15.4229 1.67764 1 1.60904e-10 
3558 1 -26.3957 14.0818 1.16144 1 7.68581e-10 
4504 1 -24.3634 15.1994 0.258096 1 3.54573e-10 
4505 1 -22.3311 15.4229 1.67763 1 1.19845e-09 
4571 1 -20.2989 14.0818 1.16143 1 8.18895e-09 
5581 1 -18.2666 15.1994 0.2581 1 4.78763e-08 
5582 1 -16.2342 15.423 1.67764 1 2.69214e-07 
5648 1 -14.2022 14.0819 1.1614 1 1.21882e-06 
6682 1 -12.1697 15.1997 0.25813 1 6.24662e-06 
6683 1 -10.137 15.4241 1.67739 1 4.37597e-05 
6749 1 -8.10753 14.0836 1.16035 1 0.00019374 
7750 1 -6.07144 15.2033 0.258352 1 0.00113567 
7751 1 -4.03866 15.4399 1.68148 1 0.0137992 
7817 1 -2.03815 14.1473 1.11657 5 3.73751 
13117 2 0.165761 13.5657 1.45109 5 2.58935 
13709 2 2.19025 13.8632 0.00996393 1 0.0222357 
13718 2 2.15544 14.7537 2.32824 1 0.00972315 
13720 2 4.20332 14.9788 0.909163 1 0.00134905 
13724 2 6.23425 13.6346 1.42002 1 0.000150329 
14442 2 8.26628 13.8583 0.000384118 1 4.89652e-05 
14463 2 8.2636 14.7527 2.3234 1 3.66888e-05 
14465 2 10.2968 14.9761 0.903722 1 6.3345e-06 
14469 2 12.3291 13.6348 1.41957 1 1.22282e-06 
15313 2 14.3613 13.8583 1.17013e-05 1 2.71158e-07 
15346 2 14.3612 14.7524 2.32292 1 1.87217e-07 
15348 2 16.3934 14.9759 0.90336 1 3.51345e-08 
15352 2 18.4257 13.6347 1.41954 1 5.53577e-09 
16357 2 20.4579 14.7523 2.32288 1 1.13815e-09 
16359 2 22.4902 14.9759 0.90334 1 9.68167e-10 
314 4 -65.0091 17.8816 1.29049 5 18.5856 
315 4 -62.9768 16.5405 0.774297 1 6.00089e-16 
327 4 -60.9445 16.764 2.19384 1 1e-15 
645 4 -58.9122 17.8816 1.29049 1 7.02088e-16 
646 4 -56.88 16.5405 0.774297 1 3.27988e-09 
670 1 -54.8477 16.764 2.19384 1 1.69982e-10 
1121 1 -52.8154 17.8816 1.29049 1 2.62156e-10 
1122 1 -50.7831 16.5405 0.774293 1 3.91223e-10 
1158 1 -48.7508 16.764 2.19384 1 3.45001e-10 
1743 1 -46.7184 17.8816 1.29049 1 1.54125e-09 
1744 1 -44.6862 16.5405 0.774294 1 2.07347e-09 
1792 1 -42.6539 16.764 2.19384 1 1.31794e-09 
2512 1 -40.6216 17.8816 1.29049 1 3.31074e-10 
2513 1 -38.5894 16.5405 0.774298 1 6.69022e-10 
2573 1 -36.5571 16.764 2.19384 1 1.2684e-09 
3422 1 -34.5248 17.8816 1.29049 1 1.64303e-09 
3423 1 -32.4926 16.5405 0.774292 1 7.16687e-10 
3489 1 -30.4603 16.764 2.19384 1 4.59263e-10 
4435 1 -28.428 17.8816 1.29049 1 5.5912e-10 
4436 1 -26.3957 16.5405 0.774297 1 5.40066e-10 
4502 1 -24.3634 16.764 2.19384 1 3.05319e-10 
5512 1 -22.3311 17.8816 1.29049 1 1.47713e-09 
5513 1 -20.2988 16.5405 0.774294 1 7.02054e-09 
5579 1 -18.2665 16.764 2.19384 1 3.6807e-08 
6613 1 -16.2342 17.8817 1.29047 1 2.03703e-07 
6614 1 -14.2017 16.5407 0.774337 1 1.44337e-06 
6680 1 -12.1692 16.7644 2.19392 1 7.71797e-06 
7681 1 -10.1358 17.8819 1.29027 1 3.8676e-05 
7682 1 -8.10093 16.5425 0.774185 1 0.000326769 
7748 1 -6.0701 16.7692 2.19585 1 0.00136344 
8678 1 -4.02007 17.8817 1.2948 1 0.0137959 
8679 1 -1.9739 16.5443 0.743046 5 1.00419 
13707 2 0.118626 16.0857 1.82923 5 1.8668 
13710 2 2.17268 16.3266 0.398241 1 0.0112077 
14439 2 4.20171 17.439 1.29236 1 0.00103076 
14440 2 6.23063 16.0949 1.80925 1 0.000312823 
14443 2 8.26419 16.3172 0.388067 1 2.52394e-05 
15310 2 10.2964 17.4349 1.29062 1 4.43597e-06 
15311 2 12.3288 16.0936 1.80684 1 1.39395e-06 
15314 2 14.3611 16.317 0.387199 1 1.7333e-07 
16309 2 16.3934 17.4346 1.2905 1 3.58435e-08 
16310 2 18.4257 16.0935 1.80669 1 4.431e-09 
16313 2 20.4579 16.317 0.387145 1 3.04065e-09 
17398 2 22.4902 17.4346 1.29049 1 1.27861e-09 
310 4 -65.0091 20.3403 0.903346 5 18.5856 
316 4 -62.9768 18.9992 0.387148 1 1.30556e-15 
625 4 -62.9768 20.5639 2.32289 1 1.10004e-15 
626 4 -60.9445 19.2227 1.80669 1 9.99966e-16 
629 4 -58.9122 20.3403 0.903346 1 2.00086e-16 
647 4 -56.88 18.9992 0.387148 1 3.27993e-09 
1089 4 -56.88 20.5639 2.32289 1 2.91765e-09 
1090 1 -54.8477 19.2227 1.80669 1 1.68141e-10 
1093 1 -52.8154 20.3403 0.903349 1 2.45511e-10 
1123 1 -50.7831 18.9992 0.387151 1 3.9125e-10 
1699 1 -50.7831 20.5639 2.32289 1 4.97965e-10 
1700 1 -48.7508 19.2227 1.80669 1 3.25594e-10 
1703 1 -46.7185 20.3403 0.90335 1 1.06599e-09 
1745 1 -44.6862 18.9992 0.38715 1 2.07348e-09 
2456 1 -44.6862 20.5639 2.32289 1 1.00837e-09 
2457 1 -42.6539 19.2227 1.80669 1 1.9119e-09 
2460 1 -40.6216 20.3403 0.903341 1 5.66354e-10 
2514 1 -38.5894 18.9992 0.38715 1 6.69023e-10 
3355 1 -38.5894 20.5639 2.32288 1 1.01957e-09 
3356 1 -36.5571 19.2227 1.80669 1 4.72737e-10 
3359 1 -34.5248 20.3403 0.903353 1 1.07765e-09 
3424 1 -32.4926 18.9992 0.387151 1 7.16689e-10 
4367 1 -32.4926 20.5639 2.3229 1 7.44062e-10 
4368 1 -30.4603 19.2227 1.8067 1 4.35789e-10 
4371 1 -28.428 20.3403 0.903351 1 1.60906e-10 
4437 1 -26.3957 18.9992 0.387148 1 5.40069e-10 
5444 1 -26.3957 20.5639 2.32289 1 7.68572e-10 
5445 1 -24.3634 19.2227 1.80669 1 3.54574e-10 
5448 1 -22.3311 20.3403 0.903349 1 1.19845e-09 
5514 1 -20.2988 18.9992 0.387142 1 7.02055e-09 
6545 1 -20.2989 20.5638 2.32289 1 8.18894e-09 
6546 1 -18.2666 19.2227 1.80667 1 4.78763e-08 
6549 1 -16.2342 20.3403 0.903269 1 2.69214e-07 
6615 1 -14.2017 18.9992 0.386987 1 1.44337e-06 
7613 1 -14.2022 20.5637 2.32279 1 1.21882e-06 
7614 1 -12.1697 19.2226 1.8064 1 6.24662e-06 
7617 1 -10.137 20.3395 0.902396 1 4.37597e-05 
7683 1 -8.10093 18.9981 0.385451 1 0.000326769 
8610 1 -8.10753 20.562 2.32184 1 0.00019374 
8611 1 -6.07144 19.221 1.80317 1 0.00113567 
8614 1 -4.03866 20.3352 0.886725 1 0.0137992 
8680 1 -1.9739 18.9703 0.399504 5 1.00419 
9507 1 -2.03815 20.4922 2.28859 5 3.73751 
13708 2 0.14249 18.6151 2.1365 5 4.02863 
14425 2 0.118626 20.1402 0.253508 5 1.8668 
14426 2 2.17268 18.7805 0.760438 1 0.0112077 
14437 2 4.20332 19.8969 1.67222 1 0.00134905 
14441 2 6.23389 18.554 2.19345 1 0.000151594 
15284 2 6.23063 20.1183 0.255603 1 0.000312823 
15285 2 8.26419 18.7764 0.773649 1 2.52394e-05 
15308 2 10.2968 19.8935 1.67727 1 6.3345e-06 
15312 2 12.329 18.5523 2.19379 1 6.05868e-07 
16271 2 12.3288 20.1169 0.257887 1 1.39396e-06 
16272 2 14.3611 18.7757 0.774238 1 1.7333e-07 
16307 2 16.3934 19.8933 1.67761 1 3.51345e-08 
16311 2 18.4257 18.5522 2.19384 1 5.12978e-09 
17354 2 18.4257 20.1168 0.258089 1 4.43099e-09 
17355 2 20.4579 18.7757 0.774297 1 3.0407e-09 
17396 2 22.4902 19.8933 1.67764 1 9.68183e-10 
615 4 -65.0091 22.7991 0.516198 5 18.5856 
616 4 -62.9768 21.4579 4.51688e-10 1 7.00946e-16 
617 4 -62.9768 23.0226 1.93574 1 8.99963e-16 
627 4 -60.9445 21.6815 1.41954 1 1.00208e-15 
1067 4 -58.9122 22.7991 0.516198 1 1.10456e-15 
1068 4 -56.88 21.4579 4.51688e-10 1 3.02726e-09 
1069 4 -56.88 23.0226 1.93574 1 3.02433e-09 
1091 1 -54.8477 21.6815 1.41954 1 8.3523e-11 
1665 1 -52.8154 22.7991 0.516202 1 3.54511e-10 
1666 1 -50.7831 21.4579 1.02787e-06 1 3.32391e-10 
1667 1 -50.7831 23.0226 1.93574 1 1.59895e-10 
1701 1 -48.7508 21.6815 1.41955 1 6.2854e-10 
2410 1 -46.7185 22.7991 0.516199 1 6.58258e-10 
2412 1 -44.6862 23.0226 1.93574 1 1.19446e-09 
2458 1 -42.6539 21.6815 1.41954 1 9.47745e-10 
3297 1 -40.6216 22.7991 0.516192 1 6.60953e-10 
3299 1 -38.5894 23.0226 1.93574 1 7.9561e-10 
3357 1 -36.5571 21.6815 1.41954 1 9.53614e-10 
4301 1 -34.5248 22.7991 0.516199 1 1.06398e-09 
4302 1 -32.4926 21.4579 4.7927e-06 1 3.48938e-10 
4303 1 -32.4926 23.0226 1.93574 1 2.64739e-10 
4369 1 -30.4603 21.6815 1.41955 1 4.8855e-10 
5378 1 -28.428 22.7991 0.516203 1 4.33319e-10 
5379 1 -26.3957 21.4579 2.99626e-06 1 4.41198e-10 
5380 1 -26.3957 23.0226 1.93574 1 6.97587e-10 
5446 1 -24.3634 21.6815 1.41955 1 9.72827e-10 
6479 1 -22.3312 22.7991 0.516203 1 1.47358e-09 
6480 1 -20.2989 21.4579 4.84044e-06 1 5.03277e-09 
6481 1 -20.2989 23.0226 1.93575 1 6.228e-09 
6547 1 -18.2666 21.6814 1.41955 1 3.73142e-08 
7547 1 -16.2343 22.799 0.516217 1 1.99923e-07 
7549 1 -14.202 23.0224 1.93583 1 1.10859e-06 
7615 1 -12.1697 21.681 1.41937 1 4.19352e-06 
8544 1 -10.1374 22.7985 0.516555 1 1.694e-05 
8546 1 -8.10497 23.0205 1.93749 1 0.000245187 
8612 1 -6.07607 21.6763 1.41724 1 0.000960605 
9441 1 -4.04446 22.7903 0.518206 1 0.00844232 
9443 1 -1.99196 23.0012 1.91949 5 3.50943 
14423 2 0.0956576 22.5898 0.642679 1 0.714967 
14427 2 2.15544 21.2384 1.15758 1 0.00972315 
15280 2 4.1966 22.3494 2.06616 1 0.0011381 
15282 2 6.22721 22.5745 0.64494 1 0.000349445 
15286 2 8.2636 21.2347 1.16087 1 3.66888e-05 
16267 2 10.2965 22.3518 2.06484 1 5.15842e-06 
16269 2 12.3287 22.5755 0.64524 1 6.75723e-07 
16273 2 14.3612 21.2344 1.16137 1 1.87217e-07 
17350 2 16.3934 22.352 2.06479 1 2.45378e-08 
17352 2 18.4257 22.5755 0.645247 1 4.08736e-09 
17356 2 20.4579 21.2344 1.16145 1 1.13815e-09 
18464 2 22.4902 22.352 2.06479 1 3.41284e-10 
611 4 -65.0091 25.2578 0.129049 5 18.5856 
613 4 -65.0091 24.3637 2.45194 5 18.5856 
1047 4 -62.9768 25.4813 1.54859 1 1.40309e-15 
1048 4 -60.9445 24.1402 1.0324 1 3.99968e-16 
1051 4 -58.9122 25.2578 0.129049 1 6.02813e-16 
1065 4 -58.9122 24.3637 2.45194 1 8.0004e-16 
1633 4 -56.88 25.4813 1.54859 1 2.88506e-09 
1634 1 -54.8477 24.1402 1.0324 1 1.17641e-10 
1637 1 -52.8154 25.2578 0.129051 1 2.74837e-10 
1663 1 -52.8154 24.3637 2.45194 1 1.79522e-10 
2366 1 -50.7831 25.4813 1.54859 1 9.80989e-11 
2367 1 -48.7508 24.1402 1.0324 1 5.117e-10 
2370 1 -46.7185 25.2578 0.129049 1 9.24307e-10 
2408 1 -46.7185 24.3637 2.45194 1 3.87011e-10 
3241 1 -44.6862 25.4813 1.54859 1 1.56171e-09 
3242 1 -42.6539 24.1402 1.03239 1 9.44859e-10 
3245 1 -40.6216 25.2578 0.12905 1 3.93794e-10 
3295 1 -40.6216 24.3637 2.45194 1 8.32966e-10 
4233 1 -38.5894 25.4813 1.5486 1 5.33288e-10 
4234 1 -36.5571 24.1402 1.03239 1 1.8828e-09 
4237 1 -34.5248 25.2578 0.129045 1 1.23469e-09 
4299 1 -34.5248 24.3637 2.45194 1 9.40548e-10 
5308 1 -32.4926 25.4813 1.54859 1 3.19272e-10 
5309 1 -30.4603 24.1402 1.0324 1 3.05658e-10 
5312 1 -28.428 25.2578 0.129049 1 2.87257e-10 
5376 1 -28.428 24.3637 2.45194 1 2.86011e-10 
6409 1 -26.3957 25.4813 1.54859 1 6.66745e-10 
6410 1 -24.3634 24.1402 1.0324 1 6.18799e-10 
6413 1 -22.3312 25.2578 0.129049 1 9.66059e-10 
6477 1 -22.3311 24.3637 2.45194 1 1.11648e-09 
7477 1 -20.2989 25.4813 1.54858 1 4.75585e-09 
7478 1 -18.2666 24.1401 1.03241 1 4.02177e-08 
7481 1 -16.2345 25.2577 0.129054 1 2.03236e-07 
7545 1 -16.2344 24.3636 2.45196 1 1.63553e-07 
8474 1 -14.2023 25.4812 1.54862 1 1.15233e-06 
8475 1 -12.1699 24.1398 1.03275 1 6.46561e-06 
8478 1 -10.1391 25.2576 0.129707 1 3.6759e-05 
8542 1 -10.1368 24.3632 2.45258 1 4.39926e-05 
9371 1 -8.10637 25.4806 1.54981 1 0.000163899 
9372 1 -6.0758 24.1355 1.03858 1 0.00165711 
9375 1 -4.05875 25.2475 0.145811 1 0.0210765 
9439 1 -4.02495 24.357 2.45649 1 0.0135394 
10145 1 -2.01734 25.5358 1.60204 5 1.80547 
15265 2 0.146407 24.9877 0.969865 5 3.50783 
15266 2 2.15556 23.6821 1.55647 1 0.0154243 
15268 2 4.19229 23.9137 0.130661 1 0.00166074 
15278 2 4.20347 24.8045 2.45096 1 0.00144806 
16240 2 6.23331 25.0319 1.03161 1 0.000245778 
16241 2 8.26364 23.692 1.54857 1 5.40654e-05 
16243 2 10.2964 23.9164 0.129144 1 6.05625e-06 
16265 2 10.2966 24.8103 2.45187 1 5.05484e-06 
17313 2 12.329 25.0341 1.03243 1 1.26272e-06 
17314 2 14.3611 23.6931 1.54862 1 1.95593e-07 
17316 2 16.3934 23.9166 0.129065 1 3.27511e-08 
17348 2 16.3934 24.8107 2.45194 1 1.83086e-08 
18427 2 18.4257 25.0343 1.0324 1 4.05497e-09 
18428 2 20.458 23.6931 1.5486 1 6.54522e-10 
18430 2 22.4902 23.9167 0.12905 1 8.3188e-10 
18462 2 22.4902 24.8107 2.45194 1 3.48155e-10 
1036 4 -65.0091 26.8224 2.06479 5 18.5856 
1039 4 -62.9768 27.94 1.16145 1 5.01048e-16 
1049 4 -60.9445 26.5989 0.645247 1 8.98249e-16 
1610 4 -58.9122 26.8224 2.06479 1 4.00003e-16 
1613 4 -56.88 27.94 1.16145 1 2.9178e-09 
1635 1 -54.8477 26.5989 0.645246 1 1.29738e-10 
2331 1 -52.8154 26.8224 2.06479 1 2.03461e-10 
2334 1 -50.7831 27.94 1.16144 1 4.97969e-10 
2368 1 -48.7508 26.5989 0.645245 1 2.66255e-10 
3194 1 -46.7185 26.8224 2.06478 1 8.30949e-10 
3197 1 -44.6862 27.94 1.16144 1 1.00837e-09 
3243 1 -42.6539 26.5989 0.645256 1 2.20921e-09 
4174 1 -40.6216 26.8224 2.0648 1 1.14519e-09 
4177 1 -38.5894 27.94 1.16145 1 1.01956e-09 
4235 1 -36.5571 26.5989 0.645245 1 6.28729e-10 
5241 1 -34.5248 26.8224 2.06479 1 4.29489e-10 
5244 1 -32.4926 27.94 1.16144 1 7.44057e-10 
5310 1 -30.4603 26.5989 0.645242 1 5.05371e-10 
6342 1 -28.428 26.8224 2.06479 1 2.13853e-10 
6345 1 -26.3957 27.94 1.16144 1 7.68572e-10 
6411 1 -24.3634 26.5989 0.645241 1 1.06998e-09 
7410 1 -22.3312 26.8224 2.06478 1 2.02567e-09 
7413 1 -20.2989 27.94 1.16143 1 8.18895e-09 
7479 1 -18.2667 26.5989 0.645226 1 3.93104e-08 
8407 1 -16.2344 26.8224 2.06473 1 1.46168e-07 
8410 1 -14.2022 27.9402 1.1614 1 1.21882e-06 
8476 1 -12.1707 26.5989 0.645228 1 1.03648e-05 
9304 1 -10.1383 26.8227 2.06426 1 2.437e-05 
9307 1 -8.10753 27.9419 1.16035 1 0.00019374 
9373 1 -6.08156 26.5991 0.64593 1 0.00145147 
10078 1 -4.04708 26.836 2.06182 1 0.0115225 
10081 1 -2.03815 28.0055 1.11657 5 3.73751 
15263 2 0.165761 27.424 1.45109 5 2.58935 
15267 2 2.17963 26.1329 1.9336 1 0.0167949 
16222 2 2.19025 27.7214 0.00996393 1 0.0222357 
16223 2 4.20866 26.3734 0.515744 1 0.00151632 
16238 2 6.23425 27.4929 1.42002 1 0.000150329 
16242 2 8.26523 26.1512 1.93521 1 2.86419e-05 
17284 2 8.26628 27.7166 0.000384118 1 4.89652e-05 
17285 2 10.2975 26.3752 0.516158 1 1.06158e-05 
17311 2 12.3291 27.493 1.41957 1 1.22282e-06 
17315 2 14.3612 26.1518 1.93573 1 1.0085e-07 
18397 2 14.3613 27.7165 1.17013e-05 1 2.71158e-07 
18398 2 16.3935 26.3754 0.516201 1 3.86851e-08 
18425 2 18.4257 27.493 1.41954 1 5.53578e-09 
18429 2 20.4579 26.1519 1.93574 1 6.02547e-10 
19514 2 22.4902 26.3754 0.516194 1 2.85669e-10 
1037 4 -65.0091 29.2811 1.67764 5 18.5856 
1595 4 -62.9768 30.3988 0.774297 1 7.00089e-16 
1596 4 -60.9445 29.0576 0.258099 1 1.10469e-15 
1597 4 -60.9445 30.6223 2.19384 1 7.00003e-16 
1611 4 -58.9122 29.2811 1.67764 1 6.98925e-16 
2304 4 -56.88 30.3988 0.774297 1 3.27988e-09 
2305 1 -54.8477 29.0576 0.258097 1 1.68119e-10 
2306 1 -54.8477 30.6223 2.19384 1 1.70004e-10 
2332 1 -52.8154 29.2811 1.67764 1 2.45496e-10 
3155 1 -50.7831 30.3987 0.774293 1 3.91238e-10 
3156 1 -48.7508 29.0576 0.258096 1 3.256e-10 
3157 1 -48.7508 30.6223 2.19384 1 3.45007e-10 
3195 1 -46.7185 29.2812 1.67763 1 1.06599e-09 
4123 1 -44.6862 30.3988 0.774294 1 2.07347e-09 
4124 1 -42.6539 29.0576 0.258103 1 1.91191e-09 
4125 1 -42.6539 30.6223 2.19384 1 1.31793e-09 
4175 1 -40.6216 29.2812 1.67765 1 5.66339e-10 
5178 1 -38.5894 30.3987 0.774298 1 6.69035e-10 
5179 1 -36.5571 29.0576 0.258096 1 4.72734e-10 
5180 1 -36.5571 30.6223 2.19384 1 1.26843e-09 
5242 1 -34.5248 29.2811 1.67764 1 1.07766e-09 
6276 1 -32.4926 30.3987 0.774292 1 7.16678e-10 
6277 1 -30.4603 29.0576 0.258092 1 4.35792e-10 
6278 1 -30.4603 30.6223 2.19384 1 4.59266e-10 
6343 1 -28.428 29.2811 1.67764 1 1.60905e-10 
7344 1 -26.3957 30.3988 0.774297 1 5.40062e-10 
7345 1 -24.3634 29.0576 0.258096 1 3.54578e-10 
7346 1 -24.3634 30.6223 2.19384 1 3.05318e-10 
7411 1 -22.3311 29.2812 1.67763 1 1.19845e-09 
8341 1 -20.2988 30.3988 0.774294 1 7.02056e-09 
8342 1 -18.2666 29.0577 0.2581 1 4.78763e-08 
8343 1 -18.2665 30.6223 2.19384 1 3.6807e-08 
8408 1 -16.2342 29.2812 1.67764 1 2.69214e-07 
9238 1 -14.2017 30.3989 0.774337 1 1.44337e-06 
9239 1 -12.1697 29.0579 0.25813 1 6.24662e-06 
9240 1 -12.1692 30.6227 2.19392 1 7.71797e-06 
9305 1 -10.137 29.2824 1.67739 1 4.37597e-05 
10012 1 -8.10093 30.4008 0.774185 1 0.000326769 
10013 1 -6.07144 29.0615 0.258352 1 0.00113567 
10014 1 -6.0701 30.6275 2.19585 1 0.00136344 
10079 1 -4.03866 29.2981 1.68148 1 0.0137992 
10661 1 -1.9739 30.4025 0.743046 5 1.00419 
16218 2 0.118626 29.944 1.82923 5 1.8668 
16219 2 2.15544 28.612 2.32824 1 0.00972315 
16220 2 2.17268 30.1848 0.398241 1 0.0112077 
16224 2 4.20332 28.837 0.909163 1 0.00134905 
17280 2 6.23063 29.9531 1.80925 1 0.000312823 
17281 2 8.2636 28.611 2.3234 1 3.66888e-05 
17282 2 8.26419 30.1754 0.388067 1 2.52394e-05 
17286 2 10.2968 28.8343 0.903722 1 6.3345e-06 
18393 2 12.3288 29.9519 1.80684 1 1.39396e-06 
18394 2 14.3612 28.6107 2.32292 1 1.87218e-07 