ITEM: TIMESTEP
0
ITEM: NUMBER OF ATOMS
18840
ITEM: BOX BOUNDS ss pp pp
-61.9139 124.57
0 33.3937
0 32.9266
ITEM: ATOMS id type x y z c_cna c_csd 
90 4 -60.1288 0.619924 1.34628 5 6.1952 
91 4 -58.3439 2.28961 1.81666 1 1.10152e-15 
92 4 -57.7489 0.0633631 0.875898 1 9.02729e-16 
249 4 -55.9639 1.73305 1.34628 1 1.1003e-15 
263 4 -53.584 1.17648 0.875898 1 5.49964e-09 
507 1 -51.204 0.619873 0.405538 1 4.6587e-09 
511 1 -49.4191 2.28948 0.875952 1 1.13579e-09 
831 1 -48.2291 0.619744 2.28711 1 1.54441e-09 
849 1 -47.0391 1.73281 0.405616 1 3.34882e-09 
848 1 -45.8491 0.063072 1.81677 1 1.40201e-09 
1249 1 -44.0642 1.73266 2.28715 1 1.10483e-09 
1252 1 -41.6843 1.17598 1.81678 1 1.39244e-09 
1674 1 -39.3043 0.619311 1.34638 1 2.31827e-09 
1675 1 -37.5194 2.28891 1.81675 1 5.69925e-10 
1676 1 -36.9244 0.0626303 0.875995 1 1.12858e-09 
2085 1 -35.1394 1.73224 1.34637 1 1.28835e-09 
2099 1 -32.7595 1.17557 0.875964 1 3.75978e-09 
2511 1 -30.3795 0.618898 0.405508 1 2.39387e-09 
2515 1 -28.5946 2.2885 0.875849 1 8.37531e-09 
2919 1 -27.4046 0.618753 2.28698 1 9.26358e-09 
2937 1 -26.2146 1.73181 0.405482 1 3.27114e-09 
2936 1 -25.0247 0.0620668 1.81665 1 1.95537e-09 
3349 1 -23.2397 1.73165 2.28705 1 2.5031e-09 
3352 1 -20.8598 1.175 1.8167 1 8.25937e-10 
3774 1 -18.4799 0.61836 1.34635 1 1.52573e-09 
3775 1 -16.6949 2.28798 1.81674 1 8.25525e-09 
3776 1 -16.0999 0.0617328 0.875987 1 1.22464e-08 
4185 1 -14.3149 1.73133 1.34636 1 9.81366e-08 
4199 1 -11.9349 1.17465 0.87592 1 1.41825e-06 
4611 1 -9.55449 0.617789 0.405344 1 2.57641e-05 
4615 1 -7.77088 2.28712 0.875369 1 0.000111491 
5019 1 -6.58032 0.620486 2.28847 1 0.00080552 
5037 1 -5.39296 1.72576 0.402413 1 0.00309365 
5036 1 -4.20511 0.0715631 1.82064 1 0.0148049 
5438 1 -2.34309 1.73056 2.27267 5 1.39569 
6242 2 0.278047 0.116236 1.94537 5 6.46623 
6243 2 0.870069 2.27454 1.05529 5 4.0258 
6245 2 2.62784 0.611463 1.52304 1 0.0624402 
6348 2 4.98191 1.17454 1.04986 1 0.00256094 
6351 2 7.35776 1.73014 0.579867 1 8.06791e-05 
6545 2 9.14231 0.0599544 1.05061 1 3.02312e-06 
6549 2 10.3322 1.72972 2.46171 1 1.22659e-06 
6586 2 9.73723 2.28625 0.109805 1 2.87643e-06 
6585 2 11.5221 0.6165 0.580273 1 2.31631e-07 
6869 2 12.7121 2.28619 1.99144 1 1.02357e-07 
6867 2 13.902 1.17303 0.10997 1 2.40263e-08 
6868 2 14.497 0.616457 2.46189 1 1.35537e-08 
7233 2 16.8769 1.173 1.99156 1 3.70713e-09 
7273 2 18.0669 0.0598759 0.110045 1 1.98327e-09 
7274 2 19.2569 1.72956 1.52119 1 1.47824e-09 
7669 2 21.0418 0.059891 1.99159 1 7.55172e-10 
7670 2 21.6368 2.28613 1.05084 1 6.82458e-10 
7672 2 23.4218 0.616462 1.52122 1 2.49712e-09 
8105 2 25.8017 1.17305 1.05085 1 2.33979e-09 
8108 2 28.1817 1.72963 0.580463 1 1.64284e-09 
8501 2 29.9666 0.0599798 1.05083 1 2.98458e-09 
8505 2 31.1566 1.72967 2.46196 1 3.83739e-09 
8542 2 30.5616 2.28621 0.110067 1 3.00805e-09 
8 4 -61.9138 4.51585 0.875898 5 37.1712 
72 4 -60.7238 2.84617 2.28704 5 12.3904 
93 4 -59.5338 3.95929 0.405518 1 8.97451e-16 
252 4 -56.5589 3.95929 2.28704 1 9.00001e-16 
253 4 -55.3689 5.07241 0.405518 1 9.97452e-16 
255 4 -54.1789 3.40273 1.81666 1 2.4509e-09 
489 4 -52.394 5.07241 2.28704 1 3.05055e-08 
509 1 -51.799 2.84612 1.3463 1 6.92865e-09 
510 1 -50.014 4.51575 1.8167 1 2.24192e-09 
834 1 -47.6341 3.95909 1.34636 1 3.47305e-09 
850 1 -45.2542 3.40241 0.87601 1 1.09838e-09 
1250 1 -42.8742 2.84572 0.405639 1 1.12153e-09 
1253 1 -43.4692 5.07199 1.3464 1 2.15842e-09 
1255 1 -41.0893 4.51531 0.876016 1 6.38061e-10 
1656 1 -39.8993 2.84558 2.28715 1 9.13966e-10 
1677 1 -38.7093 3.95864 0.405624 1 6.13623e-10 
2088 1 -35.7344 3.9585 2.28713 1 5.52903e-10 
2089 1 -34.5444 5.07157 0.405613 1 3.53685e-09 
2091 1 -33.3545 3.40184 1.81674 1 5.96802e-09 
2493 1 -31.5695 5.07144 2.28707 1 3.25085e-10 
2513 1 -30.9745 2.84517 1.34629 1 8.26999e-10 
2514 1 -29.1896 4.51477 1.81662 1 4.46387e-09 
2922 1 -26.8096 3.95809 1.34623 1 9.88046e-09 
2938 1 -24.4297 3.4014 0.875897 1 2.79679e-09 
3350 1 -22.0498 2.84472 0.405538 1 4.79048e-09 
3353 1 -22.6447 5.07099 1.3463 1 4.10852e-09 
3355 1 -20.2648 4.51434 0.875937 1 7.77356e-10 
3756 1 -19.0748 2.84462 2.28709 1 9.49716e-10 
3777 1 -17.8849 3.9577 0.405588 1 1.47403e-09 
4188 1 -14.91 3.95762 2.28713 1 2.8147e-08 
4189 1 -13.72 5.07072 0.405611 1 1.08923e-07 
4191 1 -12.5301 3.40096 1.8167 1 2.11358e-07 
4593 1 -10.7452 5.0706 2.28709 1 2.84752e-06 
4613 1 -10.1503 2.84428 1.34624 1 2.98704e-06 
4614 1 -8.36573 4.51437 1.81687 1 8.05521e-05 
5022 1 -5.98991 3.95864 1.3467 1 0.00255472 
5038 1 -3.63579 3.39547 0.873355 1 0.062321 
5439 1 -1.28569 2.9005 0.450866 5 6.46794 
5441 1 -1.87835 5.05849 1.34124 5 4.029 
6248 2 1.99223 3.9516 2.46635 1 0.0457793 
6254 2 1.33497 4.51213 0.123585 5 1.3903 
6253 2 3.19699 2.85314 0.575829 1 0.0147801 
6352 2 4.38496 4.50728 1.99413 1 0.00309179 
6349 2 5.5723 3.40195 0.108156 1 0.000802535 
6350 2 6.16443 2.84144 2.46236 1 0.000660905 
6355 2 6.7629 5.06853 1.52134 1 0.000111429 
6547 2 8.54652 3.3991 1.99149 1 2.59085e-05 
6587 2 10.9269 3.95583 1.52104 1 1.49382e-06 
6870 2 13.307 4.51239 1.05072 1 9.98011e-08 
6872 2 15.092 2.8427 1.52115 1 1.2885e-08 
6907 2 15.687 5.06893 0.580399 1 1.00313e-08 
7275 2 17.4719 3.39925 1.0508 1 3.55407e-09 
7277 2 18.6619 5.06893 2.46195 1 1.0927e-09 
7278 2 19.8519 3.95581 0.580441 1 1.41284e-09 
7676 2 22.8268 3.95582 2.46198 1 1.7498e-09 
7710 2 22.2318 4.51238 0.110077 1 1.50193e-09 
7709 2 24.0168 2.84272 0.58047 1 1.16743e-09 
8109 2 25.2067 4.51241 1.99161 1 2.20122e-09 
8106 2 26.3967 3.39931 0.110086 1 1.99815e-09 
8107 2 26.9917 2.84275 2.46199 1 1.52918e-09 
8112 2 27.5867 5.069 1.52122 1 1.47584e-09 
8503 2 29.3716 3.39933 1.99159 1 1.07418e-09 
76 4 -60.1288 6.18553 1.34628 5 6.1952 
94 4 -57.7489 5.62897 0.875898 1 1.10273e-15 
256 4 -55.9639 7.29865 1.34628 1 1.10008e-15 
258 4 -53.584 6.74209 0.875898 1 5.49818e-09 
512 1 -51.204 6.18548 0.405538 1 4.65849e-09 
837 1 -48.2291 6.18535 2.28711 1 1.54441e-09 
838 1 -47.0391 7.29842 0.405616 1 3.34891e-09 
840 1 -45.8491 5.62868 1.81677 1 1.40191e-09 
1230 1 -44.0642 7.29827 2.28715 1 1.10487e-09 
1254 1 -41.6843 6.74159 1.81678 1 1.39254e-09 
1660 1 -39.3043 6.18492 1.34638 1 2.3186e-09 
1678 1 -36.9244 5.62824 0.875995 1 1.12861e-09 
2092 1 -35.1394 7.29784 1.34637 1 1.2883e-09 
2094 1 -32.7595 6.74118 0.875964 1 3.75991e-09 
2516 1 -30.3795 6.18451 0.405508 1 2.39388e-09 
2925 1 -27.4046 6.18436 2.28698 1 9.26365e-09 
2926 1 -26.2146 7.29742 0.405482 1 3.27111e-09 
2928 1 -25.0247 5.62768 1.81665 1 1.95527e-09 
3330 1 -23.2397 7.29726 2.28705 1 2.50313e-09 
3354 1 -20.8598 6.74061 1.8167 1 8.25969e-10 
3760 1 -18.4799 6.18397 1.34635 1 1.52586e-09 
3778 1 -16.0999 5.62734 0.875987 1 1.22465e-08 
4192 1 -14.3149 7.29694 1.34636 1 9.81417e-08 
4194 1 -11.9349 6.74025 0.87592 1 1.4182e-06 
4616 1 -9.55449 6.1834 0.405344 1 2.57644e-05 
5025 1 -6.58032 6.18609 2.28847 1 0.000805521 
5026 1 -5.39296 7.29136 0.402413 1 0.00309365 
5028 1 -4.20511 5.63717 1.82064 1 0.0148048 
5425 1 -2.34309 7.29617 2.27267 5 1.39569 
6246 2 0.278047 5.68184 1.94537 5 6.46623 
6255 2 2.62784 6.17707 1.52304 1 0.0624404 
6353 2 4.98191 6.74015 1.04986 1 0.00256093 
6386 2 7.35776 7.29575 0.579867 1 8.06796e-05 
6588 2 9.14231 5.62556 1.05061 1 3.0231e-06 
6590 2 10.3322 7.29533 2.46171 1 1.22659e-06 
6591 2 11.5221 6.18211 0.580273 1 2.31643e-07 
6876 2 14.497 6.18207 2.46189 1 1.35537e-08 
6908 2 13.902 6.73864 0.10997 1 2.40242e-08 
7276 2 18.0669 5.62548 0.110045 1 1.98347e-09 
7279 2 16.8769 6.73861 1.99156 1 3.70687e-09 
7282 2 19.2569 7.29517 1.52119 1 1.47819e-09 
7674 2 21.0418 5.6255 1.99159 1 7.55377e-10 
7711 2 23.4218 6.18207 1.52122 1 2.49689e-09 
8110 2 25.8017 6.73866 1.05085 1 2.33978e-09 
8144 2 28.1817 7.29524 0.580463 1 1.64281e-09 
8544 2 29.9666 5.62559 1.05083 1 2.98454e-09 
8546 2 31.1566 7.29528 2.46196 1 3.83733e-09 
9 4 -61.9138 10.0815 0.875898 5 37.1712 
79 4 -60.7238 8.41178 2.28704 5 12.3904 
80 4 -59.5338 9.5249 0.405518 1 5.96852e-16 
82 4 -58.3439 7.85522 1.81666 1 1.40172e-15 
230 4 -56.5589 9.5249 2.28704 1 5.99402e-16 
257 4 -54.1789 8.96834 1.81666 1 2.45058e-09 
493 1 -51.799 8.41173 1.3463 1 6.92859e-09 
499 1 -50.014 10.0814 1.8167 1 2.24202e-09 
513 1 -49.4191 7.85509 0.875952 1 1.13568e-09 
841 1 -47.6341 9.5247 1.34636 1 3.47286e-09 
843 1 -45.2542 8.96801 0.87601 1 1.09838e-09 
1256 1 -42.8742 8.41133 0.405639 1 1.12157e-09 
1257 1 -41.0893 10.0809 0.876016 1 6.37975e-10 
1663 1 -39.8993 8.41118 2.28715 1 9.14039e-10 
1664 1 -38.7093 9.52425 0.405624 1 6.13627e-10 
1666 1 -37.5194 7.85451 1.81675 1 5.69892e-10 
2066 1 -35.7344 9.52411 2.28713 1 5.52897e-10 
2093 1 -33.3545 8.96745 1.81674 1 5.96818e-09 
2497 1 -30.9745 8.41078 1.34629 1 8.27036e-10 
2503 1 -29.1896 10.0804 1.81662 1 4.46381e-09 
2517 1 -28.5946 7.85411 0.875849 1 8.37532e-09 
2929 1 -26.8096 9.5237 1.34623 1 9.88041e-09 
2931 1 -24.4297 8.967 0.875897 1 2.79677e-09 
3356 1 -22.0498 8.41033 0.405538 1 4.79044e-09 
3357 1 -20.2648 10.0799 0.875937 1 7.77205e-10 
3763 1 -19.0748 8.41023 2.28709 1 9.49556e-10 
3764 1 -17.8849 9.52331 0.405588 1 1.47401e-09 
3766 1 -16.6949 7.85359 1.81674 1 8.25447e-09 
4166 1 -14.91 9.52323 2.28713 1 2.81486e-08 
4193 1 -12.5301 8.96657 1.8167 1 2.11351e-07 
4597 1 -10.1503 8.40989 1.34624 1 2.98705e-06 
4603 1 -8.36573 10.08 1.81687 1 8.05522e-05 
4617 1 -7.77088 7.85273 0.875369 1 0.000111491 
5029 1 -5.98991 9.52425 1.3467 1 0.00255471 
5031 1 -3.63579 8.96108 0.873355 1 0.0623209 
5442 1 -1.28569 8.46611 0.450866 5 6.46794 
6256 2 0.870069 7.84015 1.05529 5 4.0258 
6257 2 1.33497 10.0777 0.123585 5 1.3903 
6258 2 1.99223 9.51721 2.46635 1 0.0457793 
6259 2 3.19699 8.41875 0.575829 1 0.0147801 
6357 2 4.38496 10.0729 1.99413 1 0.00309179 
6359 2 6.16443 8.40705 2.46236 1 0.000660904 
6387 2 5.5723 8.96756 0.108156 1 0.000802536 
6589 2 9.73723 7.85186 0.109805 1 2.87639e-06 
6592 2 8.54652 8.96471 1.99149 1 2.59085e-05 
6595 2 10.9269 9.52144 1.52104 1 1.49384e-06 
6874 2 12.7121 7.8518 1.99144 1 1.02357e-07 
6909 2 15.092 8.40831 1.52115 1 1.28847e-08 
6910 2 13.307 10.078 1.05072 1 9.97985e-08 
7280 2 17.4719 8.96486 1.0508 1 3.55428e-09 
7311 2 19.8519 9.52142 0.580441 1 1.41266e-09 
7712 2 21.6368 7.85174 1.05084 1 6.82458e-10 
7713 2 22.2318 10.078 0.110077 1 1.50181e-09 
7714 2 22.8268 9.52143 2.46198 1 1.74985e-09 
7715 2 24.0168 8.40832 0.58047 1 1.16743e-09 
8114 2 25.2067 10.078 1.99161 1 2.20125e-09 
8116 2 26.9917 8.40836 2.46199 1 1.52914e-09 
8145 2 26.3967 8.96492 0.110086 1 1.99808e-09 
8545 2 30.5616 7.85182 0.110067 1 3.008e-09 
8548 2 29.3716 8.96494 1.99159 1 1.07421e-09 
83 4 -60.1288 11.7511 1.34628 5 6.1952 
85 4 -57.7489 11.1946 0.875898 1 1.30213e-15 
259 4 -55.3689 10.638 0.405518 1 1.19665e-15 
260 4 -53.584 12.3077 0.875898 1 5.49735e-09 
496 4 -52.394 10.638 2.28704 1 3.05021e-08 
497 1 -51.204 11.7511 0.405538 1 4.65926e-09 
813 1 -48.2291 11.751 2.28711 1 1.5443e-09 
842 1 -45.8491 11.1943 1.81677 1 1.40187e-09 
1234 1 -43.4692 10.6376 1.3464 1 2.15845e-09 
1240 1 -41.6843 12.3072 1.81678 1 1.39263e-09 
1667 1 -39.3043 11.7505 1.34638 1 2.3188e-09 
1669 1 -36.9244 11.1938 0.875995 1 1.12857e-09 
2095 1 -34.5444 10.6372 0.405613 1 3.53686e-09 
2096 1 -32.7595 12.3068 0.875964 1 3.76011e-09 
2500 1 -31.5695 10.637 2.28707 1 3.25062e-10 
2501 1 -30.3795 11.7501 0.405508 1 2.39391e-09 
2901 1 -27.4046 11.75 2.28698 1 9.26385e-09 
2930 1 -25.0247 11.1933 1.81665 1 1.95534e-09 
3334 1 -22.6447 10.6366 1.3463 1 4.10866e-09 
3340 1 -20.8598 12.3062 1.8167 1 8.25845e-10 
3767 1 -18.4799 11.7496 1.34635 1 1.52559e-09 
3769 1 -16.0999 11.193 0.875987 1 1.22454e-08 
4195 1 -13.72 10.6363 0.405611 1 1.08927e-07 
4196 1 -11.9349 12.3059 0.87592 1 1.41828e-06 
4600 1 -10.7452 10.6362 2.28709 1 2.84753e-06 
4601 1 -9.55449 11.749 0.405344 1 2.5764e-05 
5001 1 -6.58032 11.7517 2.28847 1 0.000805521 
5030 1 -4.20511 11.2028 1.82064 1 0.0148049 
5429 1 -1.87835 10.6241 1.34124 5 4.029 
6260 2 0.278047 11.2475 1.94537 5 6.46623 
6263 2 2.62784 11.7427 1.52304 1 0.0624402 
6389 2 4.98191 12.3058 1.04986 1 0.00256094 
6388 2 6.7629 10.6341 1.52134 1 0.000111429 
6593 2 9.14231 11.1912 1.05061 1 3.02315e-06 
6622 2 11.5221 11.7477 0.580273 1 2.31617e-07 
6911 2 13.902 12.3043 0.10997 1 2.40305e-08 
6912 2 14.497 11.7477 2.46189 1 1.35534e-08 
6913 2 15.687 10.6345 0.580399 1 1.00311e-08 
7284 2 16.8769 12.3042 1.99156 1 3.70757e-09 
7312 2 18.0669 11.1911 0.110045 1 1.98339e-09 
7286 2 18.6619 10.6345 2.46195 1 1.09248e-09 
7716 2 21.0418 11.1911 1.99159 1 7.55181e-10 
7719 2 23.4218 11.7477 1.52122 1 2.4972e-09 
8147 2 25.8017 12.3043 1.05085 1 2.33982e-09 
8146 2 27.5867 10.6346 1.52122 1 1.47586e-09 
8549 2 29.9666 11.1912 1.05083 1 2.98451e-09 
52 4 -60.7238 13.9774 2.28704 5 12.3904 
86 4 -59.5338 15.0905 0.405518 1 4.97451e-16 
84 4 -58.3439 13.4208 1.81666 1 1.40152e-15 
234 4 -55.9639 12.8643 1.34628 1 9.00085e-16 
237 4 -56.5589 15.0905 2.28704 1 5.00001e-16 
240 4 -54.1789 14.5339 1.81666 1 2.45027e-09 
500 1 -51.799 13.9773 1.3463 1 6.93028e-09 
502 1 -49.4191 13.4207 0.875952 1 1.13589e-09 
817 1 -47.6341 15.0903 1.34636 1 3.47263e-09 
844 1 -47.0391 12.864 0.405616 1 3.34865e-09 
845 1 -45.2542 14.5336 0.87601 1 1.09842e-09 
1237 1 -44.0642 12.8639 2.28715 1 1.10485e-09 
1238 1 -42.8742 13.9769 0.405639 1 1.12164e-09 
1636 1 -39.8993 13.9768 2.28715 1 9.14011e-10 
1670 1 -38.7093 15.0899 0.405624 1 6.13626e-10 
1668 1 -37.5194 13.4201 1.81675 1 5.69907e-10 
2070 1 -35.1394 12.8635 1.34637 1 1.2883e-09 
2073 1 -35.7344 15.0897 2.28713 1 5.52966e-10 
2076 1 -33.3545 14.5331 1.81674 1 5.96828e-09 
2504 1 -30.9745 13.9764 1.34629 1 8.27119e-10 
2506 1 -28.5946 13.4197 0.875849 1 8.37472e-09 
2905 1 -26.8096 15.0893 1.34623 1 9.88042e-09 
2932 1 -26.2146 12.863 0.405482 1 3.27114e-09 
2933 1 -24.4297 14.5326 0.875897 1 2.7969e-09 
3337 1 -23.2397 12.8629 2.28705 1 2.50302e-09 
3338 1 -22.0498 13.9759 0.405538 1 4.79049e-09 
3736 1 -19.0748 13.9758 2.28709 1 9.49854e-10 
3770 1 -17.8849 15.0889 0.405588 1 1.47368e-09 
3768 1 -16.6949 13.4192 1.81674 1 8.25651e-09 
4170 1 -14.3149 12.8625 1.34636 1 9.81277e-08 
4173 1 -14.91 15.0888 2.28713 1 2.81524e-08 
4176 1 -12.5301 14.5322 1.8167 1 2.11319e-07 
4604 1 -10.1503 13.9755 1.34624 1 2.9871e-06 
4606 1 -7.77088 13.4183 0.875369 1 0.000111491 
5005 1 -5.98991 15.0899 1.3467 1 0.00255473 
5032 1 -5.39296 12.857 0.402413 1 0.00309366 
5033 1 -3.63579 14.5267 0.873355 1 0.0623205 
5432 1 -2.34309 12.8618 2.27267 5 1.39569 
5433 1 -1.28569 14.0317 0.450866 5 6.46794 
6261 2 0.870069 13.4058 1.05529 5 4.0258 
6266 2 1.99223 15.0828 2.46635 1 0.0457792 
6271 2 3.19699 13.9844 0.575829 1 0.0147801 
6390 2 5.5723 14.5332 0.108156 1 0.000802535 
6391 2 6.16443 13.9727 2.46236 1 0.000660907 
6392 2 7.35776 12.8614 0.579867 1 8.06794e-05 
6597 2 8.54652 14.5303 1.99149 1 2.59079e-05 
6599 2 10.3322 12.8609 2.46171 1 1.22652e-06 
6623 2 9.73723 13.4175 0.109805 1 2.87643e-06 
6624 2 10.9269 15.0871 1.52104 1 1.49394e-06 
6914 2 12.7121 13.4174 1.99144 1 1.02368e-07 
6917 2 15.092 13.9739 1.52115 1 1.28799e-08 
7314 2 17.4719 14.5305 1.0508 1 3.55633e-09 
7313 2 19.2569 12.8608 1.52119 1 1.47874e-09 
7317 2 19.8519 15.087 0.580441 1 1.41196e-09 
7717 2 21.6368 13.4173 1.05084 1 6.82553e-10 
7723 2 22.8268 15.087 2.46198 1 1.75008e-09 
7743 2 24.0168 13.9739 0.58047 1 1.16726e-09 
8148 2 26.3967 14.5305 0.110086 1 1.99822e-09 
8149 2 26.9917 13.974 2.46199 1 1.52924e-09 
8150 2 28.1817 12.8609 0.580463 1 1.64286e-09 
8553 2 29.3716 14.5305 1.99159 1 1.07422e-09 
8555 2 31.1566 12.8609 2.46196 1 3.83727e-09 
8579 2 30.5616 13.4174 0.110067 1 3.00799e-09 
4 4 -61.9138 15.6471 0.875898 5 37.1712 
56 4 -60.1288 17.3167 1.34628 5 6.1952 
87 4 -57.7489 16.7602 0.875898 1 1.50273e-15 
238 4 -55.3689 16.2036 0.405518 1 9.97452e-16 
243 4 -53.584 17.8733 0.875898 1 5.49623e-09 
467 4 -52.394 16.2036 2.28704 1 3.05127e-08 
501 1 -50.014 15.647 1.8167 1 2.24215e-09 
503 1 -51.204 17.3167 0.405538 1 4.65965e-09 
820 1 -48.2291 17.3166 2.28711 1 1.54412e-09 
823 1 -45.8491 16.7599 1.81677 1 1.40192e-09 
1241 1 -43.4692 16.2032 1.3464 1 2.15839e-09 
1242 1 -41.6843 17.8728 1.81678 1 1.39261e-09 
1243 1 -41.0893 15.6465 0.876016 1 6.37963e-10 
1640 1 -39.3043 17.3161 1.34638 1 2.31872e-09 
1671 1 -36.9244 16.7595 0.875995 1 1.12853e-09 
2074 1 -34.5444 16.2028 0.405613 1 3.53691e-09 
2079 1 -32.7595 17.8724 0.875964 1 3.76016e-09 
2471 1 -31.5695 16.2027 2.28707 1 3.25054e-10 
2505 1 -29.1896 15.646 1.81662 1 4.46362e-09 
2507 1 -30.3795 17.3157 0.405508 1 2.39397e-09 
2908 1 -27.4046 17.3156 2.28698 1 9.264e-09 
2911 1 -25.0247 16.7589 1.81665 1 1.95552e-09 
3341 1 -22.6447 16.2022 1.3463 1 4.10871e-09 
3342 1 -20.8598 17.8718 1.8167 1 8.25707e-10 
3343 1 -20.2648 15.6456 0.875937 1 7.76922e-10 
3740 1 -18.4799 17.3152 1.34635 1 1.5252e-09 
3771 1 -16.0999 16.7586 0.875987 1 1.22441e-08 
4174 1 -13.72 16.2019 0.405611 1 1.08933e-07 
4179 1 -11.9349 17.8715 0.87592 1 1.41839e-06 
4571 1 -10.7452 16.2018 2.28709 1 2.84761e-06 
4605 1 -8.36573 15.6456 1.81687 1 8.05518e-05 
4607 1 -9.55449 17.3146 0.405344 1 2.57634e-05 
5008 1 -6.58032 17.3173 2.28847 1 0.00080552 
5011 1 -4.20511 16.7684 1.82064 1 0.0148049 
5435 1 -1.87835 16.1897 1.34124 5 4.029 
6264 2 0.278047 16.8131 1.94537 5 6.46623 
6272 2 1.33497 15.6433 0.123585 5 1.3903 
6273 2 2.62784 17.3083 1.52304 1 0.0624397 
6393 2 4.38496 15.6385 1.99413 1 0.00309181 
6394 2 4.98191 17.8714 1.04986 1 0.00256095 
6396 2 6.7629 16.1997 1.52134 1 0.000111429 
6625 2 9.14231 16.7568 1.05061 1 3.02323e-06 
6628 2 11.5221 17.3133 0.580273 1 2.3158e-07 
6915 2 13.307 15.6436 1.05072 1 9.97869e-08 
6921 2 14.497 17.3133 2.46189 1 1.3553e-08 
6938 2 15.687 16.2001 0.580399 1 1.00313e-08 
6939 2 13.902 17.8699 0.10997 1 2.40389e-08 
7315 2 18.0669 16.7567 0.110045 1 1.9831e-09 
7318 2 16.8769 17.8698 1.99156 1 3.70853e-09 
7316 2 18.6619 16.2001 2.46195 1 1.09191e-09 
7721 2 21.0418 16.7567 1.99159 1 7.54801e-10 
7744 2 22.2318 15.6436 0.110077 1 1.50123e-09 
7745 2 23.4218 17.3133 1.52122 1 2.49773e-09 
8151 2 25.2067 15.6436 1.99161 1 2.20158e-09 
8152 2 25.8017 17.8699 1.05085 1 2.33987e-09 
8154 2 27.5867 16.2002 1.52122 1 1.47583e-09 
8581 2 29.9666 16.7568 1.05083 1 2.98445e-09 
59 4 -60.7238 19.543 2.28704 5 12.3904 
62 4 -58.3439 18.9864 1.81666 1 1.10152e-15 
241 4 -55.9639 18.4299 1.34628 1 5.00084e-16 
242 4 -54.1789 20.0996 1.81666 1 2.45023e-09 
471 1 -51.799 19.5429 1.3463 1 6.93051e-09 
504 1 -49.4191 18.9863 0.875952 1 1.13609e-09 
821 1 -47.0391 18.4296 0.405616 1 3.34831e-09 
826 1 -45.2542 20.0992 0.87601 1 1.09846e-09 
1206 1 -44.0642 18.4295 2.28715 1 1.1048e-09 
1244 1 -42.8742 19.5425 0.405639 1 1.12165e-09 
1643 1 -39.8993 19.5424 2.28715 1 9.13914e-10 
1646 1 -37.5194 18.9857 1.81675 1 5.69956e-10 
2077 1 -35.1394 18.4291 1.34637 1 1.28835e-09 
2078 1 -33.3545 20.0987 1.81674 1 5.96821e-09 
2475 1 -30.9745 19.542 1.34629 1 8.27175e-10 
2508 1 -28.5946 18.9853 0.875849 1 8.37416e-09 
2909 1 -26.2146 18.4286 0.405482 1 3.27119e-09 
2914 1 -24.4297 20.0982 0.875897 1 2.79702e-09 
3306 1 -23.2397 18.4285 2.28705 1 2.50286e-09 
3344 1 -22.0498 19.5415 0.405538 1 4.7906e-09 
3743 1 -19.0748 19.5414 2.28709 1 9.50311e-10 
3746 1 -16.6949 18.9848 1.81674 1 8.25935e-09 
4177 1 -14.3149 18.4282 1.34636 1 9.81085e-08 
4178 1 -12.5301 20.0978 1.8167 1 2.11293e-07 
4575 1 -10.1503 19.5411 1.34624 1 2.98715e-06 
4608 1 -7.77088 18.9839 0.875369 1 0.000111491 
5009 1 -5.39296 18.4226 0.402413 1 0.00309368 
5014 1 -3.63579 20.0923 0.873355 1 0.0623201 
5406 1 -2.34309 18.4274 2.27267 5 1.3957 
5436 1 -1.28569 19.5973 0.450866 5 6.46794 
6274 2 0.870069 18.9714 1.05529 5 4.0258 
6277 2 3.19699 19.55 0.575829 1 0.0147801 
6400 2 6.16443 19.5383 2.46236 1 0.00066091 
6415 2 7.35776 18.427 0.579867 1 8.06789e-05 
6416 2 5.5723 20.0988 0.108156 1 0.000802533 
6626 2 9.73723 18.9831 0.109805 1 2.87652e-06 
6627 2 10.3322 18.4265 2.46171 1 1.22645e-06 
6629 2 8.54652 20.0959 1.99149 1 2.59074e-05 
6919 2 12.7121 18.983 1.99144 1 1.02379e-07 
6940 2 15.092 19.5395 1.52115 1 1.28756e-08 
7319 2 17.4719 20.0961 1.0508 1 3.55817e-09 
7321 2 19.2569 18.4264 1.52119 1 1.47938e-09 
7746 2 21.6368 18.983 1.05084 1 6.82644e-10 
7749 2 24.0168 19.5395 0.58047 1 1.1671e-09 
8158 2 26.9917 19.5396 2.46199 1 1.52935e-09 
8173 2 28.1817 18.4265 0.580463 1 1.64292e-09 
8174 2 26.3967 20.0961 0.110086 1 1.99838e-09 
8582 2 30.5616 18.983 0.110067 1 3.00798e-09 
8583 2 31.1566 18.4265 2.46196 1 3.83727e-09 
8585 2 29.3716 20.0962 1.99159 1 1.0742e-09 
5 4 -61.9138 21.2127 0.875898 5 37.1712 
60 4 -59.5338 20.6561 0.405518 1 6.97451e-16 
63 4 -60.1288 22.8824 1.34628 5 6.1952 
65 4 -57.7489 22.3258 0.875898 1 1.30273e-15 
204 4 -56.5589 20.6561 2.28704 1 7.00001e-16 
244 4 -55.3689 21.7692 0.405518 1 7.97452e-16 
474 4 -52.394 21.7692 2.28704 1 3.05123e-08 
475 1 -51.204 22.8823 0.405538 1 4.65966e-09 
477 1 -50.014 21.2126 1.8167 1 2.24205e-09 
787 1 -48.2291 22.8822 2.28711 1 1.54406e-09 
824 1 -47.6341 20.6559 1.34636 1 3.47266e-09 
825 1 -45.8491 22.3255 1.81677 1 1.40202e-09 
1210 1 -43.4692 21.7688 1.3464 1 2.1583e-09 
1245 1 -41.0893 21.2121 0.876016 1 6.38027e-10 
1644 1 -38.7093 20.6555 0.405624 1 6.13618e-10 
1647 1 -39.3043 22.8817 1.34638 1 2.31841e-09 
1649 1 -36.9244 22.3251 0.875995 1 1.12851e-09 
2040 1 -35.7344 20.6553 2.28713 1 5.53029e-10 
2080 1 -34.5444 21.7684 0.405613 1 3.53693e-09 
2478 1 -31.5695 21.7683 2.28707 1 3.25072e-10 
2479 1 -30.3795 22.8813 0.405508 1 2.39399e-09 
2481 1 -29.1896 21.2116 1.81662 1 4.46348e-09 
2875 1 -27.4046 22.8812 2.28698 1 9.26393e-09 
2912 1 -26.8096 20.6549 1.34623 1 9.88042e-09 
2913 1 -25.0247 22.3245 1.81665 1 1.95561e-09 
3310 1 -22.6447 21.7678 1.3463 1 4.10859e-09 
3345 1 -20.2648 21.2112 0.875937 1 7.76794e-10 
3744 1 -17.8849 20.6545 0.405588 1 1.47336e-09 
3747 1 -18.4799 22.8808 1.34635 1 1.52507e-09 
3749 1 -16.0999 22.3242 0.875987 1 1.2244e-08 
4140 1 -14.91 20.6544 2.28713 1 2.81546e-08 
4180 1 -13.72 21.7675 0.405611 1 1.08935e-07 
4578 1 -10.7452 21.7674 2.28709 1 2.84768e-06 
4579 1 -9.55449 22.8802 0.405344 1 2.57631e-05 
4581 1 -8.36573 21.2112 1.81687 1 8.05512e-05 
4975 1 -6.58032 22.8829 2.28847 1 0.000805519 
5012 1 -5.98991 20.6555 1.3467 1 0.00255474 
5013 1 -4.20511 22.334 1.82064 1 0.0148049 
5410 1 -1.87835 21.7553 1.34124 5 4.029 
6275 2 1.33497 21.209 0.123585 5 1.3903 
6276 2 1.99223 20.6484 2.46635 1 0.0457792 
6278 2 0.278047 22.3787 1.94537 5 6.46623 
6281 2 2.62784 22.8739 1.52304 1 0.0624395 
6398 2 4.38496 21.2041 1.99413 1 0.00309182 
6417 2 6.7629 21.7654 1.52134 1 0.000111429 
6630 2 9.14231 22.3224 1.05061 1 3.02325e-06 
6632 2 10.9269 20.6527 1.52104 1 1.49403e-06 
6645 2 11.5221 22.8789 0.580273 1 2.31568e-07 
6941 2 13.307 21.2092 1.05072 1 9.97781e-08 
6943 2 14.497 22.8789 2.46189 1 1.35531e-08 
6944 2 15.687 21.7658 0.580399 1 1.00317e-08 
7338 2 18.0669 22.3223 0.110045 1 1.9829e-09 
7325 2 18.6619 21.7658 2.46195 1 1.09157e-09 
7337 2 19.8519 20.6526 0.580441 1 1.41141e-09 
7747 2 22.2318 21.2092 0.110077 1 1.50076e-09 
7748 2 22.8268 20.6526 2.46198 1 1.75022e-09 
7750 2 21.0418 22.3223 1.99159 1 7.54591e-10 
7753 2 23.4218 22.8789 1.52122 1 2.49802e-09 
8156 2 25.2067 21.2092 1.99161 1 2.20188e-09 
8175 2 27.5867 21.7658 1.52122 1 1.4758e-09 
8586 2 29.9666 22.3224 1.05083 1 2.98451e-09 
32 4 -60.7238 25.1086 2.28704 5 12.3904 
64 4 -58.3439 24.552 1.81666 1 8.01523e-16 
208 4 -55.9639 23.9955 1.34628 1 8.00084e-16 
214 4 -54.1789 25.6652 1.81666 1 2.452e-09 
245 4 -53.584 23.4389 0.875898 1 5.49621e-09 
478 1 -51.799 25.1086 1.3463 1 6.92995e-09 
480 1 -49.4191 24.5519 0.875952 1 1.13607e-09 
827 1 -47.0391 23.9952 0.405616 1 3.34821e-09 
828 1 -45.2542 25.6648 0.87601 1 1.09846e-09 
1213 1 -44.0642 23.9951 2.28715 1 1.10477e-09 
1214 1 -42.8742 25.1082 0.405639 1 1.1216e-09 
1216 1 -41.6843 23.4384 1.81678 1 1.39251e-09 
1610 1 -39.8993 25.108 2.28715 1 9.13842e-10 
1648 1 -37.5194 24.5513 1.81675 1 5.69993e-10 
2044 1 -35.1394 23.9947 1.34637 1 1.28839e-09 
2050 1 -33.3545 25.6643 1.81674 1 5.96805e-09 
2081 1 -32.7595 23.438 0.875964 1 3.76002e-09 
2482 1 -30.9745 25.1076 1.34629 1 8.27143e-10 
2484 1 -28.5946 24.5509 0.875849 1 8.37416e-09 
2915 1 -26.2146 23.9942 0.405482 1 3.27122e-09 
2916 1 -24.4297 25.6638 0.875897 1 2.79702e-09 
3313 1 -23.2397 23.9941 2.28705 1 2.50284e-09 
3314 1 -22.0498 25.1072 0.405538 1 4.79063e-09 
3316 1 -20.8598 23.4374 1.8167 1 8.25662e-10 
3710 1 -19.0748 25.1071 2.28709 1 9.50474e-10 
3748 1 -16.6949 24.5504 1.81674 1 8.26015e-09 
4144 1 -14.3149 23.9938 1.34636 1 9.81035e-08 
4150 1 -12.5301 25.6634 1.8167 1 2.113e-07 
4181 1 -11.9349 23.4371 0.87592 1 1.41843e-06 
4582 1 -10.1503 25.1067 1.34624 1 2.98713e-06 
4584 1 -7.77088 24.5496 0.875369 1 0.000111491 
5015 1 -5.39296 23.9882 0.402413 1 0.00309368 
5016 1 -3.63579 25.6579 0.873355 1 0.0623202 
5413 1 -2.34309 23.993 2.27267 5 1.3957 
5414 1 -1.28569 25.1629 0.450866 5 6.46794 
6279 2 0.870069 24.537 1.05529 5 4.0258 
6288 2 3.19699 25.1156 0.575829 1 0.0147801 
6418 2 4.98191 23.437 1.04986 1 0.00256096 
6419 2 5.5723 25.6644 0.108156 1 0.000802532 
6420 2 6.16443 25.1039 2.46236 1 0.000660911 
6421 2 7.35776 23.9926 0.579867 1 8.06785e-05 
6634 2 8.54652 25.6615 1.99149 1 2.59075e-05 
6636 2 10.3322 23.9922 2.46171 1 1.22644e-06 
6646 2 9.73723 24.5487 0.109805 1 2.87656e-06 
6945 2 12.7121 24.5486 1.99144 1 1.02378e-07 
6942 2 13.902 23.4355 0.10997 1 2.40412e-08 
6948 2 15.092 25.1051 1.52115 1 1.28759e-08 
7323 2 16.8769 23.4354 1.99156 1 3.70879e-09 
7340 2 17.4719 25.6617 1.0508 1 3.55793e-09 
7339 2 19.2569 23.992 1.52119 1 1.47942e-09 
7751 2 21.6368 24.5486 1.05084 1 6.82652e-10 
7764 2 24.0168 25.1052 0.58047 1 1.16712e-09 
8176 2 25.8017 23.4355 1.05085 1 2.33988e-09 
8177 2 26.3967 25.6617 0.110086 1 1.99845e-09 
8178 2 26.9917 25.1052 2.46199 1 1.52936e-09 
8179 2 28.1817 23.9921 0.580463 1 1.64295e-09 
8590 2 29.3716 25.6618 1.99159 1 1.07418e-09 
8592 2 31.1566 23.9921 2.46196 1 3.83736e-09 
8602 2 30.5616 24.5486 0.110067 1 3.008e-09 
1 4 -61.9138 26.7783 0.875898 5 37.1712 
66 4 -59.5338 26.2217 0.405518 1 8.97451e-16 
67 4 -57.7489 27.8914 0.875898 1 1.10273e-15 
211 4 -56.5589 26.2217 2.28704 1 9.00001e-16 
212 4 -55.3689 27.3348 0.405518 1 7.97452e-16 
440 4 -52.394 27.3348 2.28704 1 3.05094e-08 
479 1 -50.014 26.7782 1.8167 1 2.24203e-09 
791 1 -47.6341 26.2215 1.34636 1 3.47288e-09 
797 1 -45.8491 27.8911 1.81677 1 1.40207e-09 
1217 1 -43.4692 27.3344 1.3464 1 2.15825e-09 
1219 1 -41.0893 26.7777 0.876016 1 6.38113e-10 
1650 1 -38.7093 26.2211 0.405624 1 6.13613e-10 
1651 1 -36.9244 27.8907 0.875995 1 1.12852e-09 
2047 1 -35.7344 26.2209 2.28713 1 5.53035e-10 
2048 1 -34.5444 27.334 0.405613 1 3.53691e-09 
2444 1 -31.5695 27.3339 2.28707 1 3.25097e-10 
2483 1 -29.1896 26.7772 1.81662 1 4.46354e-09 
2879 1 -26.8096 26.2205 1.34623 1 9.88046e-09 
2885 1 -25.0247 27.8901 1.81665 1 1.95554e-09 
3317 1 -22.6447 27.3334 1.3463 1 4.10841e-09 
3319 1 -20.2648 26.7768 0.875937 1 7.76955e-10 
3750 1 -17.8849 26.2201 0.405588 1 1.47336e-09 
3751 1 -16.0999 27.8898 0.875987 1 1.22451e-08 
4147 1 -14.91 26.2201 2.28713 1 2.8153e-08 
4148 1 -13.72 27.3332 0.405611 1 1.08931e-07 
4544 1 -10.7452 27.333 2.28709 1 2.84768e-06 
4583 1 -8.36573 26.7768 1.81687 1 8.05511e-05 
4979 1 -5.98991 26.2211 1.3467 1 0.00255474 
4985 1 -4.20511 27.8996 1.82064 1 0.0148049 
5416 1 -1.87835 27.3209 1.34124 5 4.029 
6282 2 0.278047 27.9443 1.94537 5 6.46623 
6284 2 1.99223 26.214 2.46635 1 0.0457792 
6289 2 1.33497 26.7746 0.123585 5 1.3903 
6422 2 4.38496 26.7697 1.99413 1 0.00309181 
6425 2 6.7629 27.331 1.52134 1 0.000111429 
6648 2 9.14231 27.888 1.05061 1 3.0232e-06 
6647 2 10.9269 26.2183 1.52104 1 1.49402e-06 
6946 2 13.307 26.7748 1.05072 1 9.97805e-08 
6956 2 15.687 27.3314 0.580399 1 1.00319e-08 
7341 2 18.0669 27.8879 0.110045 1 1.983e-09 
7342 2 18.6619 27.3314 2.46195 1 1.0918e-09 
7343 2 19.8519 26.2182 0.580441 1 1.41156e-09 
7755 2 21.0418 27.8879 1.99159 1 7.548e-10 
7757 2 22.8268 26.2183 2.46198 1 1.75017e-09 
7765 2 22.2318 26.7748 0.110077 1 1.50088e-09 
8180 2 25.2067 26.7748 1.99161 1 2.20185e-09 
8183 2 27.5867 27.3314 1.52122 1 1.47577e-09 
8604 2 29.9666 27.888 1.05083 1 2.98458e-09 
36 4 -60.1288 28.448 1.34628 5 6.1952 
39 4 -60.7238 30.6742 2.28704 5 12.3904 
42 4 -58.3439 30.1176 1.81666 1 1.10152e-15 
215 4 -55.9639 29.5611 1.34628 1 1.10008e-15 
217 4 -53.584 29.0045 0.875898 1 5.49976e-09 
444 1 -51.799 30.6742 1.3463 1 6.92884e-09 
481 1 -51.204 28.4479 0.405538 1 4.65879e-09 
482 1 -49.4191 30.1175 0.875952 1 1.13592e-09 
794 1 -48.2291 28.4478 2.28711 1 1.54423e-09 
795 1 -47.0391 29.5609 0.405616 1 3.34848e-09 
1179 1 -44.0642 29.5607 2.28715 1 1.10476e-09 
1218 1 -41.6843 29.004 1.81678 1 1.39242e-09 
1220 1 -42.8742 30.6738 0.405639 1 1.12154e-09 
1614 1 -39.3043 28.4474 1.34638 1 2.31818e-09 
1617 1 -39.8993 30.6736 2.28715 1 9.13859e-10 
1620 1 -37.5194 30.1169 1.81675 1 5.69964e-10 
2051 1 -35.1394 29.5603 1.34637 1 1.2884e-09 
2053 1 -32.7595 29.0036 0.875964 1 3.75984e-09 
2448 1 -30.9745 30.6732 1.34629 1 8.27053e-10 
2485 1 -30.3795 28.4469 0.405508 1 2.39393e-09 
2486 1 -28.5946 30.1165 0.875849 1 8.37473e-09 
2882 1 -27.4046 28.4468 2.28698 1 9.26374e-09 
2883 1 -26.2146 29.5599 0.405482 1 3.27119e-09 
3279 1 -23.2397 29.5597 2.28705 1 2.50295e-09 
3318 1 -20.8598 29.003 1.8167 1 8.25782e-10 
3320 1 -22.0498 30.6728 0.405538 1 4.79055e-09 
3714 1 -18.4799 28.4464 1.34635 1 1.52534e-09 
3717 1 -19.0748 30.6727 2.28709 1 9.50179e-10 
3720 1 -16.6949 30.116 1.81674 1 8.25814e-09 
4151 1 -14.3149 29.5594 1.34636 1 9.81175e-08 
4153 1 -11.9349 29.0027 0.87592 1 1.41836e-06 
4548 1 -10.1503 30.6723 1.34624 1 2.98708e-06 
4585 1 -9.55449 28.4458 0.405344 1 2.57634e-05 
4586 1 -7.77088 30.1152 0.875369 1 0.000111491 
4982 1 -6.58032 28.4485 2.28847 1 0.000805518 
4983 1 -5.39296 29.5538 0.402413 1 0.00309366 
5379 1 -2.34309 29.5586 2.27267 5 1.3957 
5417 1 -1.28569 30.7285 0.450866 5 6.46794 