ITEM: TIMESTEP
0
ITEM: NUMBER OF ATOMS
25132
ITEM: BOX BOUNDS ss pp pp
-78.807 118.365
0 33.3937
0 41.6492
ITEM: ATOMS id type x y z c_cna c_csd 
26 4 -78.4933 1.8561 0.0172418 5 24.7808 
28 4 -76.9253 1.11402 1.80221 5 6.1952 
238 4 -75.0438 2.22714 0.61223 1 1.09998e-15 
240 4 -73.4759 1.48506 2.3972 1 1.39914e-15 
242 4 -73.0055 0.9285 0.0172418 1 9.98491e-16 
656 4 -71.4376 0.186418 1.80221 1 5.00071e-16 
657 4 -69.5561 1.29954 0.61223 1 2.18117e-08 
1112 1 -67.9881 0.557414 2.39725 1 4.64401e-09 
1113 1 -67.5177 0.000854297 0.0173071 1 4.88868e-09 
1114 1 -66.1066 1.6705 1.20734 1 1.08445e-08 
1570 1 -64.0682 0.371855 0.612462 1 3.66008e-09 
1571 1 -62.6571 2.04153 1.80252 1 7.52706e-09 
2027 1 -60.6188 0.742911 1.20764 1 7.67146e-09 
2028 1 -59.2077 2.41262 2.39769 1 6.46206e-09 
2031 1 -58.7373 1.85606 0.0177536 1 8.51227e-09 
2483 1 -57.1693 1.11398 1.80278 1 6.52134e-09 
2488 1 -55.2878 2.22711 0.612922 1 6.05468e-09 
2940 1 -53.7198 1.48502 2.39796 1 4.98565e-09 
2946 1 -51.6815 0.186356 1.80311 1 4.4443e-09 
2947 1 -53.2495 0.928442 0.0180586 1 1.738e-09 
3405 1 -49.7999 1.29948 0.613295 1 4.15767e-09 
3404 1 -48.232 0.557432 2.39838 1 2.79012e-09 
3406 1 -47.7616 0.000864741 0.0184654 1 2.93187e-09 
3861 1 -46.3504 1.67057 1.20856 1 1.68472e-09 
3863 1 -44.3121 0.371955 0.613749 1 3.32705e-09 
4319 1 -42.9009 2.04166 1.80387 1 2.2736e-09 
4321 1 -40.8626 0.743046 1.20907 1 4.38965e-09 
4776 1 -39.4514 2.41275 2.39917 1 3.69987e-09 
4777 1 -38.9811 1.85621 0.0192606 1 6.19169e-09 
4779 1 -37.4131 1.11415 1.80437 1 4.95488e-09 
5234 1 -35.5315 2.22735 0.614573 1 2.46519e-09 
5236 1 -33.9636 1.48526 2.3997 1 3.11456e-09 
5238 1 -33.4932 0.928761 0.0197876 1 4.44946e-09 
5696 1 -31.9252 0.186678 1.80492 1 4.73989e-09 
5697 1 -30.0437 1.29988 0.615138 1 9.02854e-09 
6152 1 -28.4757 0.557754 2.40029 1 1.29899e-08 
6153 1 -28.0054 0.00130531 0.0204073 1 2.38457e-08 
6154 1 -26.5942 1.67094 1.21056 1 3.8498e-08 
6610 1 -24.5558 0.372364 0.615844 1 1.06951e-07 
6611 1 -23.1445 2.04195 1.80592 1 1.29675e-07 
7067 1 -21.1061 0.743391 1.21119 1 3.44605e-07 
7068 1 -19.6947 2.41283 2.4012 1 5.30477e-07 
7071 1 -19.2247 1.85705 0.0213813 1 6.99423e-07 
7523 1 -17.6563 1.11428 1.80639 1 1.67993e-06 
7528 1 -15.7749 2.22824 0.616267 1 1.04381e-05 
7980 1 -14.2058 1.48488 2.40114 1 4.28112e-05 
7987 1 -13.7358 0.931226 0.0211744 1 3.85588e-05 
7986 1 -12.1651 0.188689 1.80595 1 0.000185509 
8444 1 -8.72281 0.572024 2.40115 1 0.00187978 
8445 1 -10.2865 1.31066 0.6153 1 0.000253001 
8446 1 -8.24914 0.0207755 0.0204056 1 0.0012112 
8901 1 -6.83369 1.70115 1.21608 1 0.0145647 
8903 1 -4.82375 0.402276 0.63699 1 0.0889057 
9359 1 -3.31007 1.99355 1.78605 5 2.7009 
9360 1 -1.00798 2.46417 0.854748 5 6.47163 
10020 2 0.778141 0.874998 1.67371 5 4.673 
10214 2 2.84989 2.02844 1.18657 1 0.215453 
10215 2 4.25295 0.371627 2.34905 1 0.0219889 
10643 2 6.27567 1.65937 1.76132 1 0.00377066 
10645 2 8.13552 0.541648 0.574299 1 0.00114512 
11092 2 9.70067 1.29227 2.36198 1 0.000598799 
11093 2 11.5846 0.181238 1.17438 1 5.61009e-05 
11593 2 13.624 1.48183 0.579642 1 1.903e-05 
11595 2 15.1925 2.22568 2.36454 1 4.42073e-06 
12042 2 17.0749 1.11278 1.17476 1 1.35115e-06 
12045 2 19.1136 2.41163 0.579859 1 3.6452e-07 
27 4 -77.0821 3.52578 1.20722 5 12.3904 
241 4 -75.2006 4.63891 0.0172418 1 1.49969e-15 
239 4 -73.6327 3.89682 1.80221 1 1.30007e-15 
651 4 -71.5944 2.59818 1.20722 1 6.9968e-16 
654 4 -71.7512 5.00995 0.61223 1 1.29998e-15 
652 4 -70.1832 4.26786 2.3972 1 1.48938e-08 
655 4 -69.7129 3.7113 0.0172418 1 2.33952e-08 
1106 1 -68.1449 2.96917 1.80225 1 1.01317e-08 
1111 1 -66.2634 4.08226 0.612355 1 1.04648e-08 
1562 1 -64.6954 3.34017 2.39738 1 1.32206e-08 
1572 1 -64.2251 2.78361 0.0174504 1 1.23672e-08 
1567 1 -62.8139 4.4533 1.20751 1 8.13156e-09 
2024 1 -59.3645 4.82437 1.80267 1 3.18529e-09 
2030 1 -60.7756 3.15468 0.612632 1 2.33758e-09 
2486 1 -57.3261 3.52576 1.2078 1 7.8594e-09 
2487 1 -55.4446 4.63888 0.0179396 1 9.91815e-09 
2943 1 -53.8766 3.89679 1.80299 1 3.93501e-09 
2944 1 -51.9951 5.0099 0.613153 1 8.06151e-09 
2945 1 -51.8383 2.59813 1.20813 1 3.12855e-09 
3400 1 -50.4271 4.26782 2.39821 1 3.57328e-09 
3401 1 -49.9567 3.71124 0.0182957 1 5.8992e-09 
3403 1 -48.3888 2.96917 1.80338 1 4.05868e-09 
3856 1 -46.5072 4.0823 0.613562 1 2.80203e-09 
3858 1 -44.9393 3.34027 2.39867 1 2.78498e-09 
3862 1 -44.4689 2.78369 0.0187414 1 3.85259e-09 
4312 1 -43.0577 4.45339 1.20886 1 4.02152e-09 
4320 1 -41.0194 3.1548 0.614061 1 2.7144e-09 
4767 1 -39.6082 4.82451 1.80418 1 5.8809e-09 
4778 1 -37.5699 3.52592 1.20937 1 3.13477e-09 
5235 1 -34.1204 3.89703 1.8047 1 2.60396e-09 
5237 1 -35.6884 4.63913 0.0195805 1 3.14255e-09 
5691 1 -32.082 2.59845 1.20991 1 3.4785e-09 
5694 1 -32.2389 5.01022 0.6149 1 5.44122e-09 
5692 1 -30.6709 4.26812 2.40003 1 9.15155e-09 
5695 1 -30.2005 3.71164 0.0201172 1 1.3985e-08 
6146 1 -28.6325 2.96953 1.80527 1 1.06123e-08 
6151 1 -26.751 4.08274 0.615538 1 2.97273e-08 
6602 1 -25.1829 3.34056 2.40065 1 4.75451e-08 
6607 1 -23.3013 4.45382 1.21093 1 1.08191e-07 
6612 1 -24.7127 2.78422 0.0208238 1 7.96954e-08 
7070 1 -21.263 3.15536 0.616172 1 2.69104e-07 
7064 1 -19.8515 4.82485 1.80624 1 8.8981e-07 
7526 1 -17.8132 3.52643 1.21133 1 2.62294e-06 
7527 1 -15.9324 4.64099 0.0211632 1 4.94546e-06 
7983 1 -14.3648 3.89782 1.80574 1 2.26497e-05 
7984 1 -12.4837 5.01349 0.615783 1 0.000216002 
7985 1 -12.3265 2.60191 1.21006 1 9.09507e-05 
8440 1 -10.9137 4.27021 2.39834 1 0.000727953 
8441 1 -10.4438 3.72144 0.0216729 1 0.000761215 
8443 1 -8.87134 2.98312 1.80456 1 0.00287774 
8896 1 -6.95708 4.09333 0.620735 1 0.003729 
8898 1 -5.34398 3.34146 2.39101 1 0.0384583 
8902 1 -4.90511 2.79181 0.0162048 1 0.0232125 
9352 1 -3.372 4.4094 1.15346 5 4.29342 
9768 1 -0.433752 4.80618 1.37668 5 5.19968 
10027 2 1.31608 3.54006 0.134869 1 1.01445 
10261 2 2.94664 4.38526 1.81876 1 0.214787 
10260 2 4.86818 3.32066 0.586152 1 0.0105722 
10699 2 6.42933 4.07804 2.36728 1 0.00284272 
10698 2 8.30042 2.9634 1.16825 1 0.000670386 
11146 2 10.3342 4.26436 0.57669 1 9.49441e-05 
11147 2 11.7409 2.59438 1.76859 1 0.000101529 
11151 2 11.8994 5.00867 2.36368 1 3.93487e-05 
11594 2 13.7809 3.89422 1.17447 1 2.17168e-05 
12043 2 17.2316 3.52446 1.7697 1 1.46229e-06 
12098 2 19.2704 4.82333 1.17479 1 5.17849e-07 
23 4 -77.2389 5.93755 0.61223 5 12.3904 
227 4 -75.671 5.19547 2.3972 1 8.9994e-16 
230 4 -75.8278 7.60723 1.80221 1 1.29967e-15 
232 4 -73.7895 6.30859 1.20722 1 7.99679e-16 
642 4 -71.908 7.42171 0.0172418 1 1.49969e-15 
644 4 -70.34 6.67963 1.80221 1 1.15907e-08 
1098 1 -66.8906 7.05062 2.39732 1 5.39846e-09 
1109 1 -68.3017 5.38094 1.20728 1 8.58319e-09 
1110 1 -66.4202 6.49404 0.0173973 1 1.34264e-08 
1565 1 -64.8523 5.75194 1.80242 1 7.24775e-09 
1566 1 -62.9707 6.86507 0.612532 1 9.70387e-09 
2021 1 -61.4028 6.12299 2.39757 1 8.51431e-09 
2022 1 -60.9324 5.56644 0.0176095 1 9.05154e-09 
2023 1 -59.5213 7.23611 1.20766 1 5.36522e-09 
2477 1 -57.4829 5.9375 0.612785 1 5.93001e-09 
2478 1 -56.0717 7.60717 1.80283 1 8.74245e-09 
2479 1 -55.9149 5.19543 2.39784 1 6.49231e-09 
2932 1 -54.0334 6.30855 1.20799 1 6.02978e-09 
2936 1 -52.1518 7.42166 0.0181495 1 7.60617e-09 
3387 1 -50.5839 6.6796 1.80322 1 4.39359e-09 
3402 1 -48.5456 5.38093 1.20838 1 6.67862e-09 
3841 1 -47.1344 7.05063 2.39846 1 6.35871e-09 
3859 1 -46.664 6.49404 0.01855 1 3.9846e-09 
3857 1 -45.0961 5.752 1.80366 1 1.381e-09 
4313 1 -41.6465 6.1231 2.39896 1 9.86678e-09 
4315 1 -43.2145 6.86513 0.613845 1 9.88002e-09 
4316 1 -41.1762 5.56655 0.0190432 1 9.07366e-09 
4770 1 -39.765 7.23628 1.20917 1 3.44693e-09 
4772 1 -37.7267 5.93771 0.614375 1 3.99422e-09 
5223 1 -36.1587 5.19563 2.39949 1 2.62325e-09 
5226 1 -36.3155 7.60741 1.80448 1 3.20292e-09 
5228 1 -34.2772 6.30882 1.2097 1 1.94178e-09 
5682 1 -32.3957 7.42202 0.0199166 1 1.79606e-09 
5684 1 -30.8277 6.6799 1.80504 1 6.93806e-09 
6149 1 -28.7894 5.38131 1.21027 1 1.43675e-08 
6138 1 -27.3781 7.05094 2.4004 1 2.18465e-08 
6150 1 -26.9078 6.49452 0.0205361 1 3.02286e-08 
6605 1 -25.3397 5.75235 1.80565 1 4.04624e-08 
6606 1 -23.4582 6.86561 0.615941 1 1.17421e-07 
7061 1 -21.89 6.12336 2.40103 1 2.8059e-07 
7062 1 -21.4198 5.56724 0.021175 1 3.181e-07 
7063 1 -20.0085 7.23691 1.21127 1 6.99915e-07 
7517 1 -17.9702 5.93885 0.616351 1 1.94179e-06 
7518 1 -16.5586 7.60832 1.80643 1 1.07853e-05 
7519 1 -16.4023 5.19591 2.40125 1 5.33959e-06 
7972 1 -14.521 6.31048 1.21126 1 4.27874e-05 
7976 1 -12.637 7.42399 0.0225931 1 4.63291e-05 
8427 1 -11.0654 6.67647 1.80667 1 0.000281165 
8442 1 -9.01557 5.38166 1.21251 1 0.000972106 
8881 1 -7.59024 7.03048 2.41098 1 0.0240968 
8899 1 -7.1129 6.49548 0.0352522 1 0.0321104 
8897 1 -5.49293 5.73486 1.82252 1 0.154826 
9355 1 -3.77514 6.97968 0.592663 1 0.324896 
9353 1 -2.29503 6.21633 2.30782 5 1.20316 
9769 1 -0.295762 7.28411 1.55407 5 3.03964 
10029 2 1.64317 6.09079 0.632329 1 0.345188 
10262 2 3.20671 6.86218 2.3517 1 0.0754614 
10264 2 5.00611 5.72248 1.17003 1 0.0250724 
10753 2 7.03781 7.03898 0.571069 1 0.00409856 
10702 2 8.45307 5.37944 1.76686 1 0.000489534 
11202 2 10.4891 6.67722 1.17305 1 6.43816e-05 
11650 2 13.9386 6.30688 1.76936 1 8.73455e-06 
11649 2 15.8203 5.19355 0.579781 1 5.26247e-06 
11653 2 15.9777 7.60567 1.17465 1 2.17748e-06 
12099 2 17.3886 5.9363 2.36458 1 1.59957e-06 
12102 2 19.4273 7.23519 1.76975 1 4.84159e-07 
14 4 -77.8661 8.90587 2.3972 5 18.5856 
22 4 -77.3957 8.34931 0.0172418 5 18.5856 
211 4 -75.9846 10.019 1.20722 1 1.30128e-15 
231 4 -73.9463 8.72035 0.61223 1 7.00777e-16 
641 4 -72.3783 7.97827 2.3972 1 1.00034e-15 
643 4 -70.4968 9.09139 1.20722 1 5.36351e-09 
1096 1 -68.4585 7.79271 0.612277 1 1.10839e-08 
1097 1 -67.0474 9.4624 1.8023 1 5.26204e-09 
1099 1 -68.6153 10.2045 0.0172771 1 8.83255e-09 
1550 1 -65.0091 8.16373 1.20743 1 8.61314e-09 
1551 1 -63.5979 9.8334 2.39747 1 3.91223e-09 
1554 1 -63.1275 9.27685 0.0175386 1 8.77736e-09 
2004 1 -61.5596 8.53474 1.80258 1 9.43514e-09 
2009 1 -59.6781 9.64786 0.612683 1 7.65443e-09 
2458 1 -58.1101 8.90578 2.39771 1 6.73348e-09 
2463 1 -56.2285 10.0189 1.20782 1 6.92129e-09 
2480 1 -57.6397 8.34924 0.0177739 1 6.73372e-09 
2935 1 -54.1902 8.72029 0.612976 1 4.69656e-09 
2933 1 -52.6222 7.97824 2.39806 1 4.73953e-09 
3390 1 -50.7407 9.09137 1.20821 1 6.58637e-09 
3391 1 -48.8591 10.2045 0.0183822 1 5.91432e-09 
3392 1 -48.7023 7.7927 0.613385 1 6.90491e-10 
3844 1 -47.2912 9.4624 1.80347 1 4.61335e-09 
3846 1 -45.2528 8.16374 1.20865 1 1.06972e-08 
4298 1 -43.8417 9.83346 2.39876 1 7.91877e-09 
4299 1 -43.3713 9.27688 0.0188465 1 1.11004e-08 
4301 1 -41.8034 8.53486 1.80396 1 4.86197e-09 
4753 1 -39.9218 9.64805 0.614172 1 4.1978e-09 
4755 1 -38.3539 8.906 2.39928 1 3.80329e-09 
4771 1 -37.8835 8.34949 0.0193659 1 7.68062e-09 
5207 1 -36.4723 10.0192 1.20948 1 4.16564e-09 
5227 1 -34.434 8.72062 0.614709 1 3.69895e-09 
5681 1 -32.866 7.97852 2.39983 1 5.61249e-09 
5683 1 -30.9845 9.0917 1.21005 1 6.74276e-09 
6136 1 -28.9462 7.79309 0.615279 1 1.65921e-08 
6139 1 -29.1029 10.2049 0.020275 1 1.25686e-08 
6137 1 -27.5349 9.46272 1.80542 1 2.34173e-08 
6590 1 -25.4966 8.16412 1.21068 1 4.78764e-08 
6591 1 -24.0853 9.83371 2.40078 1 9.58333e-08 
6594 1 -23.6151 9.2774 0.0209403 1 1.23787e-07 
7044 1 -22.0469 8.5352 1.80605 1 2.65014e-07 
7049 1 -20.1654 9.64877 0.616334 1 1.03438e-06 
7498 1 -18.5969 8.90634 2.4013 1 2.63604e-06 
7503 1 -16.7144 10.02 1.21176 1 4.067e-06 
7520 1 -18.1269 8.35094 0.021544 1 3.67485e-06 
7973 1 -13.1059 7.97676 2.40189 1 3.67189e-05 
7975 1 -14.6755 8.72223 0.617201 1 1.34183e-05 
8430 1 -11.2215 9.08864 1.21404 1 0.00106344 
8431 1 -9.35482 10.213 0.0185521 1 0.00147537 
8432 1 -9.17734 7.78645 0.621962 1 0.00633339 
8884 1 -7.79829 9.46471 1.80752 1 0.00667661 
8886 1 -5.76759 8.20359 1.2254 1 0.0359611 
9338 1 -4.36135 9.88092 2.41847 1 0.42862 
9339 1 -3.88062 9.4129 0.0662166 1 0.617402 
9341 1 -2.36149 8.64633 1.92563 5 4.77216 
9764 1 -0.272238 9.66243 2.42223 5 8.29157 
10038 2 0.124867 9.97819 0.0106722 5 4.76174 
10039 2 1.74317 8.5269 1.12126 1 0.214411 
10310 2 3.75171 9.83235 0.566526 1 0.022194 
10311 2 5.18545 8.17409 1.75973 1 0.0113818 
10754 2 7.20481 9.46443 1.17387 1 0.00200632 
10755 2 8.60392 7.79126 2.36317 1 0.000890538 
11203 2 10.6446 9.0884 1.76925 1 0.000167647 
11205 2 12.5278 7.97572 0.579097 1 1.43834e-05 
11651 2 14.0959 8.7188 2.36444 1 4.90635e-06 
11707 2 16.1346 10.0176 1.76959 1 1.21665e-06 
12153 2 18.0163 8.9047 0.579823 1 7.06648e-07 
12155 2 19.5843 9.64715 2.36476 1 2.80986e-07 
13 4 -78.0229 11.3176 1.80221 5 18.5856 
212 4 -74.5734 11.6887 2.3972 1 9.99939e-16 
214 4 -76.1414 12.4308 0.61223 1 8.99976e-16 
215 4 -74.1031 11.1321 0.0172418 1 1.09849e-15 
620 4 -72.5351 10.39 1.80221 1 1.20247e-15 
623 4 -72.6919 12.8018 1.20722 1 1.09968e-15 
625 4 -70.6536 11.5032 0.61223 1 2.89634e-09 
1073 4 -69.0857 10.7611 2.3972 1 2.77334e-08 
1078 1 -67.2041 11.8742 1.20729 1 6.63163e-09 
1531 1 -63.7547 12.2452 1.80246 1 4.15074e-09 
1553 1 -65.1658 10.5755 0.612404 1 7.75696e-09 
2007 1 -61.7163 10.9465 1.20759 1 1.17402e-08 
1984 1 -60.3052 12.6162 2.39763 1 1.07797e-08 
2008 1 -59.8348 12.0596 0.0176694 1 4.07044e-09 
2461 1 -58.2669 11.3175 1.80271 1 6.76224e-09 
2462 1 -56.3854 12.4307 0.612817 1 1.42102e-08 
2914 1 -54.8174 11.6886 2.39787 1 4.71142e-09 
2915 1 -54.347 11.132 0.0179637 1 5.12488e-09 
2916 1 -52.9359 12.8017 1.20802 1 6.05072e-09 
2917 1 -52.779 10.39 1.80303 1 4.20739e-09 
3369 1 -50.8975 11.5031 0.6132 1 6.3262e-09 
3371 1 -49.3295 10.7611 2.39829 1 6.96995e-09 
3821 1 -47.448 11.8742 1.20846 1 1.20839e-08 
3845 1 -45.4097 10.5755 0.613647 1 9.50745e-09 
4273 1 -43.9985 12.2452 1.80379 1 7.04029e-09 
4300 1 -41.9602 10.9466 1.20899 1 7.54669e-09 
4726 1 -40.5491 12.6164 2.39911 1 1.34305e-08 
4754 1 -38.5107 11.3178 1.80429 1 2.98358e-09 
4756 1 -40.0787 12.0598 0.0191966 1 1.00908e-08 
5210 1 -36.6291 12.431 0.614485 1 2.40207e-09 
5208 1 -35.0611 11.6889 2.39961 1 3.18262e-09 
5211 1 -34.5908 11.1324 0.0196994 1 3.54082e-09 
5660 1 -33.0228 10.3903 1.80484 1 8.45172e-09 
5663 1 -33.1796 12.8021 1.20981 1 5.03662e-09 
5665 1 -31.1413 11.5035 0.615043 1 8.61393e-09 
6113 1 -29.5733 10.7614 2.40016 1 6.39627e-09 
6118 1 -27.6917 11.8745 1.21041 1 2.0873e-08 
6571 1 -24.2422 12.2455 1.8058 1 1.10594e-07 
6593 1 -25.6534 10.5759 0.615672 1 5.73087e-08 
7024 1 -20.7922 12.6164 2.40113 1 5.22579e-07 
7047 1 -22.2038 10.947 1.21107 1 3.56739e-07 
7048 1 -20.3222 12.0605 0.0214391 1 8.38163e-07 
7501 1 -18.7534 11.318 1.80641 1 1.35792e-06 
7502 1 -16.8713 12.4317 0.617022 1 8.90757e-06 
7954 1 -15.3016 11.6884 2.40196 1 3.07097e-05 
7955 1 -14.8317 11.1342 0.0226667 1 5.16859e-05 
7956 1 -13.4209 12.8046 1.21227 1 5.2734e-05 
7957 1 -13.2614 10.3896 1.80796 1 0.000186228 
8409 1 -11.3849 11.5086 0.616404 1 0.00026637 
8411 1 -9.82174 10.7612 2.40241 1 0.00101204 
8861 1 -7.94916 11.8836 1.19343 1 0.00603475 
8885 1 -5.92912 10.6007 0.591677 1 0.0523993 
9313 1 -4.47772 12.198 1.74582 1 0.416966 
9340 1 -2.0127 10.9816 1.02389 5 4.5412 
10042 2 1.78778 10.9024 1.75655 1 0.0898357 
10053 2 0.173434 12.4084 0.4905 5 4.14396 
10362 2 3.85452 12.2158 1.18146 1 0.0125981 
10315 2 5.31316 10.5908 2.36582 1 0.012522 
10808 2 9.23793 10.7579 0.581159 1 0.000356737 
10809 2 7.35094 11.8742 1.77566 1 0.00230296 
11259 2 10.8048 11.5017 2.366 1 9.03727e-05 
11258 2 12.6844 10.387 1.17446 1 3.08925e-05 
11262 2 12.8425 12.7996 1.76991 1 1.59444e-05 
11706 2 14.7233 11.6864 0.579491 1 5.20981e-06 
11711 2 16.2913 12.4296 2.36455 1 1.97559e-06 
12154 2 18.1731 11.3166 1.17479 1 4.37699e-07 
7 4 -78.1797 13.7294 1.20722 5 18.5856 
185 4 -76.7686 15.3991 2.3972 1 7.99938e-16 
186 4 -76.2982 14.8425 0.0172418 1 7.99688e-16 
188 4 -74.7302 14.1004 1.80221 1 1.10007e-15 
594 4 -72.8487 15.2136 0.61223 1 8.99977e-16 
596 4 -71.2808 14.4715 2.3972 1 1.29994e-15 
624 4 -70.8104 13.9149 0.0172418 1 1.00854e-09 
1076 4 -69.2425 13.1728 1.80221 1 2.53227e-08 
1077 1 -67.3609 14.2859 0.612307 1 3.82169e-09 
1528 1 -65.793 13.5438 2.39735 1 2.48602e-09 
1529 1 -65.3226 12.9873 0.0174172 1 4.89658e-09 
1530 1 -63.9114 14.6569 1.20748 1 9.76291e-09 
1982 1 -61.8731 13.3583 0.612578 1 9.34126e-09 
1983 1 -60.462 15.028 1.80263 1 7.91089e-09 
2434 1 -58.4237 13.7293 1.20771 1 7.29137e-09 
2435 1 -57.0125 15.399 2.39776 1 5.62558e-09 
2438 1 -56.5422 14.8424 0.0178212 1 1.35181e-08 
2885 1 -54.9742 14.1004 1.80287 1 1.22161e-08 
2890 1 -53.0927 15.2135 0.613034 1 5.53036e-09 
3338 1 -51.5247 14.4714 2.39809 1 1.02686e-08 
3372 1 -51.0543 13.9149 0.0181944 1 4.86005e-09 
3370 1 -49.4863 13.1728 1.80328 1 6.77576e-09 
3822 1 -46.0368 13.5439 2.39858 1 2.33221e-09 
3824 1 -47.6048 14.2859 0.613458 1 8.11025e-09 
3825 1 -45.5664 12.9873 0.0186462 1 7.67519e-09 
4276 1 -44.1553 14.657 1.20877 1 2.66883e-09 
4278 1 -42.117 13.3584 0.613995 1 1.24373e-08 
4729 1 -40.7058 15.0281 1.80409 1 8.173e-09 
4731 1 -38.6675 13.7295 1.2093 1 8.52946e-09 
5181 1 -37.2563 15.3992 2.39939 1 4.18402e-09 
5182 1 -36.7859 14.8427 0.0194756 1 2.83198e-09 
5184 1 -35.218 14.1007 1.80459 1 2.85036e-09 
5634 1 -33.3364 15.2138 0.614793 1 3.44879e-09 
5636 1 -31.7684 14.4718 2.39994 1 2.73474e-09 
5664 1 -31.298 13.9153 0.0200306 1 8.9825e-09 
6116 1 -29.7301 13.1732 1.80517 1 8.57891e-09 
6117 1 -27.8485 14.2863 0.615407 1 2.41844e-08 
6568 1 -26.2805 13.5441 2.40054 1 4.56839e-08 
6569 1 -25.8102 12.9877 0.0206649 1 6.31287e-08 
6570 1 -24.399 14.6573 1.21082 1 1.04819e-07 
7022 1 -22.3606 13.3588 0.616115 1 3.07224e-07 
7023 1 -20.9492 15.0282 1.80618 1 5.63373e-07 
7474 1 -18.9105 13.7297 1.21154 1 2.11474e-06 
7475 1 -17.4991 15.399 2.40148 1 2.67614e-06 
7478 1 -17.0292 14.8439 0.0219051 1 4.0306e-06 
7925 1 -15.46 14.1012 1.8069 1 9.08442e-06 
7930 1 -13.5786 15.2171 0.616366 1 2.48247e-05 
8378 1 -12.0095 14.4745 2.40125 1 0.000136526 
8412 1 -11.5407 13.9231 0.0191256 1 0.000212463 
8410 1 -9.97465 13.1797 1.80215 1 0.00101578 
8864 1 -8.08253 14.2914 0.606441 1 0.00708144 
8862 1 -6.53133 13.5222 2.38714 1 0.0295365 
9316 1 -4.71692 14.6538 1.20071 1 0.0869882 
9318 1 -2.7322 13.2885 0.512822 5 5.69029 
9751 1 -1.10037 13.8054 1.98371 5 8.07012 
10054 2 0.759858 15.0926 1.15036 1 0.818792 
10055 2 1.90563 13.2942 2.33205 1 0.427668 
10363 2 4.0069 14.624 1.7485 1 0.063565 
10365 2 5.92026 13.5217 0.586805 1 0.00363519 
10810 2 7.49706 14.2732 2.36756 1 0.00142944 
10812 2 9.39206 13.1675 1.17823 1 0.00039664 
11306 2 11.4304 14.4668 0.580526 1 5.66291e-05 
11308 2 12.9983 15.2119 2.36477 1 2.3688e-05 
11756 2 14.8802 14.0987 1.17459 1 3.86842e-06 
11759 2 16.9184 15.3978 0.579721 1 1.14934e-06 
12206 2 18.3298 13.7285 1.76973 1 5.38987e-07 
6 4 -78.3365 16.1412 0.61223 5 18.5856 
150 4 -76.9253 17.8108 1.80221 5 6.1952 
187 4 -74.887 16.5122 1.20722 1 1.09968e-15 
595 4 -71.4376 16.8832 1.80221 1 1.10007e-15 
597 4 -73.0055 17.6253 0.0172418 1 9.99689e-16 
1045 4 -69.3993 15.5846 1.20722 1 2.47138e-08 
1046 1 -67.9881 17.2542 2.39725 1 4.64356e-09 
1049 1 -67.5177 16.6977 0.0173071 1 4.88882e-09 
1495 1 -65.9498 15.9556 1.80236 1 4.84074e-09 
1500 1 -64.0682 17.0687 0.612462 1 3.66012e-09 
1947 1 -62.5003 16.3266 2.39752 1 4.6151e-09 
1985 1 -62.0299 15.7701 0.0175815 1 7.45433e-09 
1952 1 -60.6188 17.4397 1.20764 1 7.67144e-09 
2403 1 -57.1693 17.8108 1.80278 1 6.52132e-09 
2437 1 -58.5805 16.1411 0.61273 1 4.42892e-09 
2888 1 -55.131 16.5122 1.20788 1 1.03759e-08 
2889 1 -53.2495 17.6253 0.0180586 1 1.73801e-09 
3341 1 -51.6815 16.8832 1.80311 1 4.44431e-09 
3343 1 -49.6431 15.5846 1.20828 1 5.16616e-09 
3791 1 -48.232 17.2543 2.39838 1 2.79012e-09 
3792 1 -47.7616 16.6977 0.0184654 1 2.93187e-09 
3794 1 -46.1936 15.9557 1.80357 1 5.31174e-09 
4243 1 -44.3121 17.0688 0.613749 1 3.32706e-09 
4245 1 -42.7442 16.3267 2.39889 1 4.30736e-09 
4277 1 -42.2738 15.7702 0.0189577 1 4.85029e-09 
4694 1 -40.8626 17.4399 1.20907 1 4.38964e-09 
4730 1 -38.8243 16.1413 0.61428 1 4.91499e-09 
5144 1 -37.4131 17.811 1.80437 1 4.95488e-09 
5183 1 -35.3747 16.5124 1.20957 1 3.09803e-09 
5637 1 -33.4932 17.6256 0.0197876 1 4.44945e-09 
5635 1 -31.9252 16.8835 1.80492 1 4.73989e-09 
6085 1 -29.8869 15.5849 1.21016 1 1.22005e-08 
6086 1 -28.4757 17.2546 2.40029 1 1.29899e-08 
6089 1 -28.0054 16.6981 0.0204073 1 2.38457e-08 
6535 1 -26.4373 15.956 1.80556 1 4.05452e-08 
6540 1 -24.5558 17.0692 0.615844 1 1.06951e-07 
6987 1 -22.9876 16.3269 2.40091 1 1.62913e-07 
6992 1 -21.1061 17.4402 1.21119 1 3.44605e-07 
7025 1 -22.5175 15.7707 0.0211425 1 2.68475e-07 
7477 1 -19.0677 16.1418 0.616511 1 1.19321e-06 
7443 1 -17.6563 17.8111 1.80639 1 1.67993e-06 
7928 1 -15.6177 16.5132 1.21153 1 6.07951e-06 
7929 1 -13.7358 17.6281 0.0211744 1 3.85588e-05 
8381 1 -12.1651 16.8855 1.80595 1 0.000185509 
8383 1 -10.1234 15.5909 1.20963 1 0.00106187 
8831 1 -8.72281 17.2688 2.40115 1 0.00187978 
8832 1 -8.24914 16.7176 0.0204056 1 0.0012112 
8834 1 -6.70113 15.9772 1.80829 1 0.00980556 
9283 1 -4.82375 17.0991 0.63699 1 0.0889057 
9285 1 -3.36909 16.3402 2.50176 5 4.13009 
9317 1 -2.81644 15.7532 0.193784 5 3.6504 
9727 1 -1.11534 16.1954 2.07562 5 6.31375 
10075 2 0.778141 17.5718 1.67371 5 4.673 
10074 2 2.69187 16.354 0.533351 1 0.0883283 
10409 2 4.25295 17.0685 2.34905 1 0.0219889 
10408 2 6.08758 15.9268 1.16621 1 0.00956531 
10856 2 8.13552 17.2385 0.574299 1 0.00114512 
10857 2 9.5442 15.5755 1.76999 1 0.000238694 
11307 2 11.5846 16.8781 1.17438 1 5.61009e-05 
11757 2 15.0364 16.5108 1.76965 1 5.3107e-06 
11798 2 17.0749 17.8096 1.17476 1 1.35115e-06 
12207 2 18.4866 16.1404 2.3647 1 5.93165e-07 
2 4 -78.4933 18.5529 0.0172418 5 24.7808 
153 4 -77.0821 20.2226 1.20722 5 12.3904 
155 4 -75.0438 18.924 0.61223 1 9.99977e-16 
555 4 -73.4759 18.1819 2.3972 1 9.99941e-16 
560 4 -71.5944 19.295 1.20722 1 7.9968e-16 
1008 4 -69.7129 20.4081 0.0172418 1 2.33903e-08 
1048 4 -69.5561 17.9964 0.61223 1 2.1806e-08 
1010 1 -68.1449 19.666 1.80225 1 1.01317e-08 
1459 1 -64.6954 20.037 2.39738 1 1.32208e-08 
1498 1 -66.1066 18.3673 1.20734 1 1.08446e-08 
1499 1 -64.2251 19.4804 0.0174504 1 1.23673e-08 
1950 1 -62.6571 18.7384 1.80252 1 7.52707e-09 
1951 1 -60.7756 19.8515 0.612632 1 2.33759e-09 
2400 1 -59.2077 19.1094 2.39769 1 6.46209e-09 
2401 1 -58.7373 18.5529 0.0177536 1 8.51226e-09 
2402 1 -57.3261 20.2226 1.2078 1 7.85937e-09 
2851 1 -55.2878 18.9239 0.612922 1 6.0547e-09 
2853 1 -53.7198 18.1818 2.39796 1 4.98565e-09 
3302 1 -51.8383 19.295 1.20813 1 3.12854e-09 
3306 1 -49.9567 20.4081 0.0182957 1 5.8992e-09 
3342 1 -49.7999 17.9963 0.613295 1 4.15767e-09 
3750 1 -48.3888 19.666 1.80338 1 4.05868e-09 
3793 1 -46.3504 18.3674 1.20856 1 1.68473e-09 
4200 1 -44.9393 20.0371 2.39867 1 2.78497e-09 
4246 1 -44.4689 19.4805 0.0187414 1 3.85259e-09 
4244 1 -42.9009 18.7385 1.80387 1 2.2736e-09 
4697 1 -41.0194 19.8516 0.614061 1 2.7144e-09 
4695 1 -39.4514 19.1096 2.39917 1 3.69988e-09 
4698 1 -38.9811 18.553 0.0192606 1 6.1917e-09 
5147 1 -37.5699 20.2227 1.20937 1 3.13476e-09 
5149 1 -35.5315 18.9242 0.614573 1 2.46517e-09 
5595 1 -33.9636 18.1821 2.3997 1 3.11455e-09 
5600 1 -32.082 19.2953 1.20991 1 3.47849e-09 
6048 1 -30.2005 20.4085 0.0201172 1 1.3985e-08 
6050 1 -28.6325 19.6664 1.80527 1 1.06123e-08 
6088 1 -30.0437 17.9967 0.615138 1 9.02855e-09 
6538 1 -26.5942 18.3678 1.21056 1 3.8498e-08 
6499 1 -25.1829 20.0374 2.40065 1 4.75451e-08 
6539 1 -24.7127 19.481 0.0208238 1 7.96954e-08 
6990 1 -23.1445 18.7388 1.80592 1 1.29675e-07 
6991 1 -21.263 19.8522 0.616172 1 2.69104e-07 
7440 1 -19.6947 19.1097 2.4012 1 5.30477e-07 
7441 1 -19.2247 18.5539 0.0213813 1 6.99423e-07 
7442 1 -17.8132 20.2233 1.21133 1 2.62294e-06 
7891 1 -15.7749 18.9251 0.616267 1 1.04381e-05 
7893 1 -14.2058 18.1817 2.40114 1 4.28112e-05 
8342 1 -12.3265 19.2987 1.21006 1 9.09507e-05 
8346 1 -10.4438 20.4183 0.0216729 1 0.000761215 
8382 1 -10.2865 18.0075 0.6153 1 0.000253001 
8790 1 -8.87134 19.6799 1.80456 1 0.00287774 
8833 1 -6.83369 18.398 1.21608 1 0.0145647 
9240 1 -5.34398 20.0383 2.39101 1 0.0384583 
9284 1 -3.31007 18.6904 1.78605 5 2.7009 
9286 1 -4.90511 19.4886 0.0162048 1 0.0232125 
9728 1 -1.00798 19.161 0.854748 5 6.47163 
10098 2 1.31608 20.2369 0.134869 1 1.01445 
10078 2 2.84989 18.7253 1.18657 1 0.215453 
10412 2 6.27567 18.3562 1.76132 1 0.00377066 
10444 2 4.86818 20.0175 0.586152 1 0.0105722 
10894 2 8.30042 19.6602 1.16825 1 0.000670386 
10861 2 9.70067 17.9891 2.36198 1 0.000598799 
11347 2 11.7409 19.2912 1.76859 1 0.000101529 
11346 2 13.624 18.1787 0.579642 1 1.903e-05 
11799 2 15.1925 18.9225 2.36454 1 4.42073e-06 
11802 2 17.2316 20.2213 1.7697 1 1.46229e-06 
12249 2 19.1136 19.1085 0.579859 1 3.6452e-07 
116 4 -77.2389 22.6344 0.61223 5 12.3904 
118 4 -75.671 21.8923 2.3972 1 5.9994e-16 
154 4 -75.2006 21.3357 0.0172418 1 9.99689e-16 
511 4 -73.7895 23.0054 1.20722 1 1.29968e-15 
558 4 -73.6327 20.5937 1.80221 1 1.40007e-15 
559 4 -71.7512 21.7068 0.61223 1 7.99977e-16 
1007 4 -70.1832 20.9647 2.3972 1 1.48888e-08 
1009 1 -68.3017 22.0778 1.20728 1 8.58359e-09 
1457 1 -66.2634 20.7791 0.612355 1 1.0465e-08 
1458 1 -64.8523 22.4488 1.80242 1 7.24769e-09 
1907 1 -62.8139 21.1501 1.20751 1 8.13163e-09 
1908 1 -61.4028 22.8198 2.39757 1 8.51435e-09 
1911 1 -60.9324 22.2633 0.0176095 1 9.05156e-09 
2355 1 -59.3645 21.5212 1.80267 1 3.18529e-09 
2360 1 -57.4829 22.6343 0.612785 1 5.93001e-09 
2804 1 -55.9149 21.8923 2.39784 1 6.49232e-09 
2809 1 -54.0334 23.0054 1.20799 1 6.02976e-09 
2852 1 -53.8766 20.5936 1.80299 1 3.935e-09 
2854 1 -55.4446 21.3357 0.0179396 1 9.91813e-09 
3305 1 -51.9951 21.7067 0.613153 1 8.06153e-09 
3303 1 -50.4271 20.9646 2.39821 1 3.57329e-09 
3753 1 -48.5456 22.0778 1.20838 1 6.67863e-09 
3755 1 -46.5072 20.7791 0.613562 1 2.80203e-09 
4203 1 -45.0961 22.4488 1.80366 1 1.38101e-09 
4205 1 -43.0577 21.1502 1.20886 1 4.02151e-09 
4652 1 -41.6465 22.8199 2.39896 1 9.86675e-09 
4653 1 -41.1762 22.2634 0.0190432 1 9.0737e-09 
4655 1 -39.6082 21.5213 1.80418 1 5.88089e-09 
5102 1 -37.7267 22.6345 0.614375 1 3.99423e-09 
5104 1 -36.1587 21.8925 2.39949 1 2.62325e-09 
5148 1 -35.6884 21.336 0.0195805 1 3.14254e-09 
5551 1 -34.2772 23.0056 1.2097 1 1.94178e-09 
5598 1 -34.1204 20.5939 1.8047 1 2.60396e-09 
5599 1 -32.2389 21.707 0.6149 1 5.44124e-09 
6047 1 -30.6709 20.9649 2.40003 1 9.15157e-09 
6049 1 -28.7894 22.0781 1.21027 1 1.43675e-08 
6497 1 -26.751 20.7796 0.615538 1 2.97272e-08 
6498 1 -25.3397 22.4492 1.80565 1 4.04624e-08 
6947 1 -23.3013 21.1506 1.21093 1 1.08191e-07 
6948 1 -21.89 22.8202 2.40103 1 2.8059e-07 
6951 1 -21.4198 22.2641 0.021175 1 3.181e-07 
7395 1 -19.8515 21.5217 1.80624 1 8.8981e-07 
7400 1 -17.9702 22.6357 0.616351 1 1.94179e-06 
7844 1 -16.4023 21.8927 2.40125 1 5.33959e-06 
7894 1 -15.9324 21.3378 0.0211632 1 4.94546e-06 
7849 1 -14.521 23.0073 1.21126 1 4.27874e-05 
7892 1 -14.3648 20.5946 1.80574 1 2.26497e-05 
8343 1 -10.9137 20.967 2.39834 1 0.000727953 
8345 1 -12.4837 21.7103 0.615783 1 0.000216002 
8793 1 -9.01557 22.0785 1.21251 1 0.000972106 
8795 1 -6.95708 20.7902 0.620735 1 0.003729 
9243 1 -5.49293 22.4317 1.82252 1 0.154826 
9245 1 -3.372 21.1062 1.15346 5 4.29342 
9687 1 -2.29503 22.9132 2.30782 5 1.20316 
9690 1 -0.433752 21.503 1.37668 5 5.19968 
10099 2 1.64317 22.7876 0.632329 1 0.345188 
10100 2 2.94664 21.0821 1.81876 1 0.214787 
10445 2 5.00611 22.4193 1.17003 1 0.0250724 
10446 2 6.42933 20.7749 2.36728 1 0.00284272 
10895 2 8.45307 22.0763 1.76686 1 0.000489534 
10897 2 10.3342 20.9612 0.57669 1 9.49441e-05 
11348 2 11.8994 21.7055 2.36368 1 3.93487e-05 
11350 2 13.7809 20.591 1.17447 1 2.17168e-05 
11379 2 13.9386 23.0037 1.76936 1 8.73455e-06 
11830 2 15.8203 21.8904 0.579781 1 5.26247e-06 
11832 2 17.3886 22.6331 2.36458 1 1.59957e-06 
12283 2 19.2704 21.5202 1.17479 1 5.17849e-07 
82 4 -77.8661 25.6027 2.3972 5 18.5856 
119 4 -77.3957 25.0461 0.0172418 5 18.5856 
117 4 -75.8278 24.3041 1.80221 1 9.00067e-16 
514 4 -73.9463 25.4172 0.61223 1 7.99976e-16 
512 4 -72.3783 24.6751 2.3972 1 3.9994e-16 
515 4 -71.908 24.1185 0.0172418 1 1.19969e-15 
958 4 -70.34 23.3765 1.80221 1 1.15877e-08 
963 1 -68.4585 24.4895 0.612277 1 1.10836e-08 
1406 1 -66.8906 23.7474 2.39732 1 5.39851e-09 
1460 1 -66.4202 23.1909 0.0173973 1 1.34264e-08 
1411 1 -65.0091 24.8606 1.20743 1 8.61329e-09 
1860 1 -61.5596 25.2316 1.80258 1 9.43514e-09 
1910 1 -62.9707 23.5619 0.612532 1 9.70391e-09 
2358 1 -59.5213 23.9329 1.20766 1 5.36524e-09 
2307 1 -58.1101 25.6026 2.39771 1 6.73347e-09 
2359 1 -57.6397 25.0461 0.0177739 1 6.73373e-09 
2807 1 -56.0717 24.304 1.80283 1 8.74243e-09 
2808 1 -54.1902 25.4171 0.612976 1 4.69657e-09 
3256 1 -52.6222 24.6751 2.39806 1 4.73953e-09 
3257 1 -52.1518 24.1185 0.0181495 1 7.60618e-09 
3259 1 -50.5839 23.3764 1.80322 1 4.39359e-09 
3704 1 -48.7023 24.4895 0.613385 1 6.90491e-10 
3706 1 -47.1344 23.7475 2.39846 1 6.35872e-09 
3754 1 -46.664 23.1909 0.01855 1 3.98459e-09 
4152 1 -45.2528 24.8606 1.20865 1 1.06972e-08 
4204 1 -43.2145 23.562 0.613845 1 9.88001e-09 
4599 1 -41.8034 25.2317 1.80396 1 4.86198e-09 
4654 1 -39.765 23.9331 1.20917 1 3.44692e-09 
5047 1 -38.3539 25.6028 2.39928 1 3.80329e-09 
5103 1 -36.3155 24.3042 1.80448 1 3.20294e-09 
5105 1 -37.8835 25.0463 0.0193659 1 7.68061e-09 
5554 1 -34.434 25.4174 0.614709 1 3.69894e-09 
5552 1 -32.866 24.6753 2.39983 1 5.61249e-09 
5555 1 -32.3957 24.1188 0.0199166 1 1.79606e-09 
5998 1 -30.8277 23.3767 1.80504 1 6.93806e-09 
6003 1 -28.9462 24.4899 0.615279 1 1.65921e-08 
6446 1 -27.3781 23.7478 2.4004 1 2.18465e-08 
6500 1 -26.9078 23.1913 0.0205361 1 3.02286e-08 
6451 1 -25.4966 24.8609 1.21068 1 4.78763e-08 
6950 1 -23.4582 23.5624 0.615941 1 1.17421e-07 
6900 1 -22.0469 25.232 1.80605 1 2.65014e-07 
7347 1 -18.5969 25.6032 2.4013 1 2.63604e-06 
7398 1 -20.0085 23.9337 1.21127 1 6.99915e-07 
7399 1 -18.1269 25.0478 0.021544 1 3.67485e-06 
7847 1 -16.5586 24.3051 1.80643 1 1.07853e-05 
7848 1 -14.6755 25.4191 0.617201 1 1.34183e-05 
8296 1 -13.1059 24.6736 2.40189 1 3.67189e-05 