ITEM: TIMESTEP
0
ITEM: NUMBER OF ATOMS
26754
ITEM: BOX BOUNDS ss pp pp
-75.6459 132.486
0 30.1777
0 46.432
ITEM: ATOMS id type x y z c_cna c_csd 
1 4 -74.9922 1.11275 0.344924 5 18.5856 
16 4 -72.7044 0.394228 1.01205 1 1.49658e-15 
17 4 -72.3776 2.54978 2.21288 1 1.00102e-15 
20 4 -70.7434 1.83126 0.478349 1 4.99057e-16 
81 4 -68.4557 1.11275 1.14548 1 5.00013e-16 
82 4 -66.4947 2.54978 0.611775 1 7.59397e-08 
83 4 -66.1679 0.394228 1.8126 1 1.1084e-07 
206 1 -64.207 1.83142 1.27898 1 2.75873e-09 
213 1 -61.9192 1.11304 1.94619 1 3.56677e-09 
214 1 -60.2851 0.394589 0.211726 1 2.00039e-08 
425 1 -59.9583 2.55017 1.41258 1 1.30236e-08 
428 1 -57.6705 1.83181 2.07986 1 6.02565e-09 
431 1 -56.0364 1.11344 0.345457 1 3.36124e-09 
730 1 -53.7486 0.395147 1.01277 1 1.33719e-09 
731 1 -53.4218 2.55073 2.21363 1 1.93356e-09 
734 1 -51.7876 1.83237 0.479247 1 1.22689e-08 
1123 1 -49.4999 1.11399 1.14656 1 4.07405e-09 
1124 1 -47.5389 2.55113 0.612993 1 3.94379e-09 
1125 1 -47.2121 0.395587 1.81385 1 3.05656e-09 
1594 1 -45.2511 1.83271 1.28032 1 5.70551e-09 
1601 1 -42.9633 1.11429 1.94762 1 4.96382e-09 
1602 1 -41.3291 0.395813 0.213208 1 8.32127e-09 
2141 1 -41.0023 2.55138 1.41405 1 7.30044e-09 
2144 1 -38.7145 1.8329 2.08129 1 7.86322e-09 
2147 1 -37.0804 1.1144 0.346812 1 3.61042e-09 
2731 1 -34.7926 0.395883 1.014 1 9.37962e-10 
2732 1 -34.4657 2.55144 2.21484 1 1.62909e-09 
2735 1 -32.8316 1.83292 0.480353 1 2.73211e-09 
3342 1 -30.5438 1.11439 1.14751 1 8.96896e-09 
3343 1 -28.5829 2.55137 0.613815 1 1.77575e-09 
3344 1 -28.256 0.395821 1.81465 1 3.9842e-09 
3945 1 -26.2951 1.83279 1.28096 1 4.94749e-09 
3952 1 -24.0073 1.11423 1.94814 1 1.26056e-08 
3953 1 -22.3732 0.3957 0.213696 1 1.28633e-08 
4556 1 -22.0463 2.55126 1.41455 1 6.27636e-09 
4559 1 -19.7586 1.83276 2.08183 1 7.47426e-09 
4562 1 -18.1244 1.11428 0.34743 1 1.48583e-08 
5166 1 -15.8367 0.395745 1.01477 1 9.4632e-08 
5167 1 -15.5099 2.55127 2.21567 1 1.90714e-07 
5170 1 -13.8758 1.83277 0.481267 1 4.31475e-07 
5778 1 -11.5883 1.11404 1.14878 1 4.66038e-06 
5779 1 -9.62781 2.55068 0.615399 1 2.02689e-05 
5780 1 -9.30077 0.395425 1.81647 1 2.17693e-05 
6381 1 -7.34036 1.83153 1.28346 1 0.000105583 
6388 1 -5.04889 1.1143 1.95131 1 0.000785221 
6389 1 -3.41955 0.383167 0.225598 1 0.01513 
6992 1 -3.0897 2.54841 1.42611 1 0.0167015 
6995 1 -0.743019 1.8495 2.11948 5 3.92377 
12239 2 0.623199 1.15204 0.330299 5 10.3069 
12842 2 2.4487 2.60145 0.663469 5 5.6892 
12843 2 2.09775 0.359742 1.8798 5 3.63039 
12845 2 4.36001 1.11074 1.13779 1 0.037283 
13452 2 6.64869 1.8387 0.483183 1 0.00257576 
13453 2 8.2956 2.55402 2.22104 1 0.00088617 
13454 2 8.61503 0.400463 1.02223 1 0.000404323 
14061 2 10.9046 1.11747 0.355911 1 5.96685e-05 
14063 2 12.5399 1.83512 2.09064 1 1.04421e-05 
14066 2 14.8279 2.55357 1.42402 1 1.92096e-06 
14669 2 15.155 0.397938 0.223309 1 6.90338e-07 
14670 2 16.7891 1.11647 1.95809 1 3.74576e-07 
14673 2 19.0769 1.83495 1.29142 1 4.98473e-08 
15278 2 21.3648 2.55346 0.624671 1 7.36922e-09 
15279 2 21.0379 0.397927 1.82545 1 1.74043e-08 
15281 2 23.3257 1.11643 1.15867 1 2.88359e-09 
15888 2 25.6135 1.83493 0.491867 1 5.43577e-10 
15889 2 27.2476 2.55343 2.22663 1 1.63705e-09 
15890 2 27.5745 0.397882 1.02585 1 1.16465e-09 
6 4 -74.6653 3.2683 1.54575 5 18.5856 
9 4 -74.9922 5.42385 0.344924 5 18.5856 
11 4 -72.7044 4.70533 1.01205 1 1.79497e-15 
74 4 -70.4166 3.98681 1.67918 1 8.99004e-16 
76 4 -68.4557 5.42385 1.14548 1 1.00001e-15 
77 4 -68.1289 3.2683 2.3463 1 3.0044e-09 
192 4 -66.1679 4.70533 1.8126 1 1.10933e-07 
207 1 -63.8802 3.987 2.47983 1 5.45703e-09 
209 1 -64.5338 3.98695 0.0781355 1 5.30099e-09 
210 1 -62.246 3.26858 0.745357 1 5.9653e-09 
413 1 -61.9192 5.42414 1.94619 1 3.93921e-09 
414 1 -60.2851 4.70569 0.211728 1 1.81779e-08 
427 1 -57.9973 3.98734 0.879009 1 5.85507e-09 
720 1 -55.7096 3.26902 1.54631 1 2.40711e-09 
723 1 -56.0364 5.42454 0.345457 1 2.77512e-09 
725 1 -53.7486 4.70625 1.01277 1 1.44193e-09 
1116 1 -51.4608 3.98794 1.6801 1 1.18638e-08 
1118 1 -49.4999 5.4251 1.14656 1 3.253e-09 
1119 1 -49.173 3.26956 2.34741 1 1.8357e-09 
1580 1 -47.2121 4.70669 1.81385 1 3.47751e-09 
1597 1 -45.5779 3.98826 0.0794529 1 1.72614e-09 
1595 1 -44.9243 3.98827 2.48117 1 2.24984e-09 
1598 1 -43.2901 3.26983 0.746768 1 4.45069e-09 
2129 1 -42.9633 5.42539 1.94762 1 5.13231e-09 
2130 1 -41.3291 4.70692 0.213207 1 7.41617e-09 
2143 1 -39.0413 3.98844 0.880442 1 2.79367e-09 
2721 1 -36.7535 3.26994 1.54765 1 8.43392e-10 
2724 1 -37.0804 5.4255 0.346811 1 3.46455e-09 
2726 1 -34.7926 4.70698 1.014 1 9.34969e-10 
3335 1 -32.5048 3.98847 1.68118 1 4.62621e-09 
3337 1 -30.5438 5.42549 1.14751 1 7.70295e-09 
3338 1 -30.217 3.26993 2.34835 1 4.98651e-09 
3931 1 -28.256 4.70692 1.81465 1 3.91967e-09 
3946 1 -25.9683 3.98833 2.48179 1 1.02407e-08 
3948 1 -26.6219 3.98835 0.0801248 1 5.24321e-09 
3949 1 -24.3341 3.26978 0.747305 1 1.11914e-08 
4544 1 -24.0073 5.42533 1.94814 1 1.20426e-08 
4545 1 -22.3732 4.7068 0.213696 1 1.28177e-08 
4558 1 -20.0854 3.98832 0.880974 1 7.92646e-09 
5156 1 -17.7976 3.26981 1.5483 1 2.03644e-08 
5159 1 -18.1244 5.42538 0.34743 1 1.48446e-08 
5161 1 -15.8367 4.70685 1.01477 1 9.36879e-08 
5771 1 -13.549 3.98823 1.68218 1 9.29376e-07 
5773 1 -11.5883 5.42514 1.14878 1 4.6557e-06 
5774 1 -11.2612 3.2697 2.34966 1 3.76933e-06 
6367 1 -9.30077 4.70653 1.81647 1 2.17608e-05 
6384 1 -7.66822 3.98685 0.0822737 1 0.000115547 
6382 1 -7.01171 3.98919 2.48397 1 7.70478e-05 
6385 1 -5.38198 3.26641 0.751585 1 0.000954689 
6980 1 -5.04889 5.4254 1.95131 1 0.000785156 
6981 1 -3.41955 4.69427 0.225595 1 0.015128 
6994 1 -1.09441 3.93819 0.878619 5 5.24446 
12245 2 0.62319 5.46314 0.330308 5 10.3069 
12247 2 2.09774 4.67085 1.8798 5 3.63033 
12846 2 4.36001 5.42184 1.13779 1 0.0372864 
12847 2 4.05587 3.26729 2.37402 1 0.0509144 
12850 2 6.32919 3.9923 1.69068 1 0.00210229 
13458 2 8.61503 4.71156 1.02223 1 0.000404036 
13460 2 10.5792 3.27306 1.55587 1 7.97684e-05 
13461 2 10.9046 5.42857 0.355912 1 5.96601e-05 
14062 2 12.8668 3.99096 0.889818 1 9.55608e-06 
14071 2 15.155 4.70904 0.223309 1 6.91769e-07 
14075 2 16.7891 5.42757 1.95809 1 3.74471e-07 
14671 2 17.1159 3.27198 0.757364 1 1.68034e-07 
10878 2 19.4038 3.99047 0.0906657 1 3.18336e-08 
14672 2 18.7501 3.99052 2.49217 1 9.29895e-08 
14683 2 21.0379 4.70903 1.82545 1 1.70367e-08 
15282 2 23.3257 5.42753 1.15867 1 2.89116e-09 
15283 2 22.9989 3.27199 2.35944 1 5.1948e-09 
15286 2 25.2867 3.99049 1.69265 1 1.14717e-09 
15894 2 27.5745 4.70898 1.02585 1 1.18443e-09 
3 4 -74.6653 7.5794 1.54575 5 18.5856 
58 4 -72.3776 6.86088 2.21288 1 1.20102e-15 
59 4 -70.7434 6.14236 0.478349 1 7.99054e-16 
170 4 -68.1289 7.5794 2.3463 1 3.00793e-09 
195 4 -66.4947 6.86088 0.611775 1 7.58105e-08 
197 1 -64.207 6.14252 1.27898 1 2.76308e-09 
394 1 -62.246 7.57968 0.745357 1 5.36111e-09 
415 1 -59.9583 6.86127 1.41258 1 1.31711e-08 
702 1 -57.6705 6.14292 2.07986 1 6.0438e-09 
707 1 -55.7096 7.58012 1.54631 1 2.59129e-09 
1100 1 -53.4218 6.86183 2.21363 1 1.84008e-09 
1101 1 -51.7876 6.14347 0.479246 1 1.24568e-08 
1558 1 -49.173 7.58067 2.34741 1 1.75393e-09 
1583 1 -47.5389 6.86223 0.612994 1 3.60227e-09 
1585 1 -45.2511 6.14381 1.28032 1 6.22892e-09 
2110 1 -43.2901 7.58093 0.746767 1 4.39198e-09 
2131 1 -41.0023 6.86248 1.41405 1 7.65743e-09 
2703 1 -38.7145 6.144 2.08129 1 7.68838e-09 
2708 1 -36.7535 7.58105 1.54765 1 9.0893e-10 
3319 1 -34.4657 6.86254 2.21484 1 1.56781e-09 
3320 1 -32.8316 6.14402 0.480354 1 3.15003e-09 
3909 1 -30.217 7.58103 2.34835 1 5.3366e-09 
3934 1 -28.5829 6.86248 0.613814 1 2.08868e-09 
3936 1 -26.2951 6.14389 1.28096 1 5.3015e-09 
4525 1 -24.3341 7.58088 0.747306 1 1.06064e-08 
4546 1 -22.0463 6.86236 1.41455 1 6.64435e-09 
5138 1 -19.7586 6.14386 2.08183 1 7.71423e-09 
5143 1 -17.7976 7.58091 1.5483 1 2.04495e-08 
5755 1 -15.5099 6.86238 2.21567 1 1.90996e-07 
5756 1 -13.8758 6.14387 0.481268 1 4.31062e-07 
6345 1 -11.2612 7.5808 2.34966 1 3.77651e-06 
6370 1 -9.62781 6.86178 0.6154 1 2.03003e-05 
6372 1 -7.34036 6.14263 1.28347 1 0.000105592 
6961 1 -5.38198 7.57751 0.751583 1 0.000954679 
6982 1 -3.0897 6.85951 1.42611 1 0.0166982 
7573 1 -0.743018 6.1606 2.11947 5 3.92375 
12248 2 2.4487 6.91256 0.663479 5 5.68929 
12267 2 4.05587 7.57839 2.37401 1 0.0509101 
12859 2 6.64869 6.1498 0.483182 1 0.00257705 
12863 2 8.2956 6.86512 2.22104 1 0.000885929 
13474 2 10.5792 7.58416 1.55587 1 7.97181e-05 
13476 2 12.5399 6.14623 2.09063 1 1.04626e-05 
14070 2 14.8279 6.86467 1.42401 1 1.92618e-06 
14089 2 17.1159 7.58308 0.757365 1 1.68641e-07 
14681 2 19.0769 6.14606 1.29142 1 4.98286e-08 
14684 2 21.3648 6.86456 0.624671 1 7.33439e-09 
14703 2 22.9989 7.58309 2.35944 1 5.3555e-09 
15295 2 25.6135 6.14603 0.491866 1 6.93731e-10 
15299 2 27.2476 6.86453 2.22663 1 1.38929e-09 
2 4 -74.9922 9.73495 0.344924 5 18.5856 
40 4 -72.7044 9.01643 1.01205 1 1.49338e-15 
44 4 -70.7434 10.4535 0.478349 1 1.00306e-15 
60 4 -70.4166 8.29792 1.67918 1 5.99007e-16 
173 4 -68.4557 9.73495 1.14548 1 7.97616e-16 
175 4 -66.1679 9.01643 1.8126 1 1.10517e-07 
196 1 -64.5338 8.29806 0.0781355 1 5.04708e-09 
365 1 -64.207 10.4536 1.27898 1 2.76793e-09 
393 1 -63.8802 8.2981 2.47983 1 5.23712e-09 
395 1 -61.9192 9.73524 1.94619 1 3.60826e-09 
397 1 -60.2851 9.01679 0.211727 1 1.88885e-08 
705 1 -57.9973 8.29844 0.879009 1 5.84318e-09 
681 1 -57.6705 10.454 2.07986 1 5.67713e-09 
706 1 -56.0364 9.73564 0.345457 1 2.96819e-09 
1076 1 -53.7486 9.01735 1.01277 1 1.38512e-09 
1080 1 -51.7876 10.4546 0.479246 1 1.21404e-08 
1102 1 -51.4608 8.29905 1.6801 1 1.18657e-08 
1561 1 -49.4999 9.7362 1.14656 1 3.68484e-09 
1563 1 -47.2121 9.01779 1.81385 1 3.02323e-09 
1584 1 -45.5779 8.29936 0.0794524 1 2.31297e-09 
2081 1 -45.2511 10.4549 1.28032 1 5.84478e-09 
2109 1 -44.9243 8.29937 2.48117 1 2.56962e-09 
2111 1 -42.9633 9.73649 1.94762 1 5.07725e-09 
2113 1 -41.3291 9.01802 0.213208 1 8.34298e-09 
2682 1 -38.7145 10.4551 2.08129 1 7.77721e-09 
2706 1 -39.0413 8.29954 0.880442 1 2.56001e-09 
2707 1 -37.0804 9.7366 0.346811 1 3.60451e-09 
3295 1 -34.7926 9.01809 1.014 1 9.70136e-10 
3299 1 -32.8316 10.4551 0.480354 1 3.00271e-09 
3321 1 -32.5048 8.29958 1.68119 1 4.36185e-09 
3912 1 -30.5438 9.73659 1.14751 1 8.26512e-09 
3914 1 -28.256 9.01802 1.81465 1 4.05534e-09 
3935 1 -26.6219 8.29945 0.0801242 1 5.65409e-09 
4496 1 -26.2951 10.455 1.28096 1 4.8057e-09 
4524 1 -25.9683 8.29943 2.48179 1 9.41016e-09 
4526 1 -24.0073 9.73643 1.94814 1 1.26907e-08 
4528 1 -22.3732 9.0179 0.213695 1 1.29821e-08 
5141 1 -20.0854 8.29942 0.880975 1 7.53936e-09 
5117 1 -19.7586 10.455 2.08183 1 7.71653e-09 
5142 1 -18.1244 9.73648 0.347431 1 1.48001e-08 
5731 1 -15.8367 9.01795 1.01477 1 9.53857e-08 
5735 1 -13.8758 10.455 0.481267 1 4.30953e-07 
5757 1 -13.549 8.29934 1.68218 1 9.2264e-07 
6348 1 -11.5883 9.73624 1.14878 1 4.66795e-06 
6350 1 -9.30077 9.01763 1.81647 1 2.17577e-05 
6371 1 -7.66822 8.29795 0.0822735 1 0.000115409 
6932 1 -7.34036 10.4537 1.28346 1 0.000105615 
6960 1 -7.01171 8.30029 2.48398 1 7.70538e-05 
6962 1 -5.04889 9.73651 1.95131 1 0.000785285 
6964 1 -3.41955 9.00537 0.2256 1 0.0151324 
7552 1 -0.74302 10.4717 2.11949 5 3.92378 
7576 1 -1.09442 8.24928 0.878622 5 5.24449 
11687 2 0.623216 9.77424 0.330303 5 10.3068 
12265 2 2.09774 8.98195 1.87979 5 3.63039 
12268 2 4.36001 9.73294 1.13779 1 0.0372806 
12858 2 6.32919 8.3034 1.69068 1 0.00210139 
12879 2 6.64869 10.4609 0.483182 1 0.00257563 
12881 2 8.61503 9.02267 1.02223 1 0.000404315 
13473 2 10.9046 9.73967 0.355911 1 5.96898e-05 
13477 2 12.8668 8.30207 0.889818 1 9.54304e-06 
13498 2 12.5399 10.4573 2.09064 1 1.04402e-05 
14087 2 15.155 9.02014 0.223309 1 6.89785e-07 
14088 2 16.7891 9.73867 1.95809 1 3.7398e-07 
10935 2 19.4038 8.30157 0.0906655 1 3.15932e-08 
14093 2 18.7501 8.30162 2.49217 1 9.28423e-08 
14115 2 19.0769 10.4572 1.29142 1 5.01958e-08 
14701 2 21.0379 9.02013 1.82545 1 1.72268e-08 
14704 2 23.3257 9.73863 1.15867 1 2.90157e-09 
15294 2 25.2867 8.30159 1.69265 1 1.3217e-09 
15315 2 25.6135 10.4571 0.491866 1 6.34058e-10 
15317 2 27.5745 9.02009 1.02585 1 1.15488e-09 
26 4 -74.6653 11.8905 1.54575 5 18.5856 
31 4 -72.7044 13.3275 1.01205 1 1.29497e-15 
41 4 -72.3776 11.172 2.21288 1 1.49863e-15 
145 4 -70.4166 12.609 1.67918 1 7.99004e-16 
148 4 -68.1289 11.8905 2.3463 1 3.01111e-09 
174 4 -66.4947 11.172 0.611775 1 7.56696e-08 
328 4 -66.1679 13.3275 1.8126 1 1.10977e-07 
366 1 -63.8802 12.6092 2.47983 1 5.5934e-09 
368 1 -64.5338 12.6092 0.078135 1 5.26598e-09 
369 1 -62.246 11.8908 0.745357 1 5.73208e-09 
643 1 -60.2851 13.3279 0.211727 1 1.93978e-08 
678 1 -59.9583 11.1724 1.41257 1 1.3188e-08 
680 1 -57.9973 12.6095 0.879009 1 5.56412e-09 
1042 1 -55.7096 11.8912 1.54631 1 2.65861e-09 
1047 1 -53.7486 13.3285 1.01277 1 1.21177e-09 
1077 1 -53.4218 11.1729 2.21363 1 2.07114e-09 
1530 1 -51.4608 12.6101 1.6801 1 1.21309e-08 
1533 1 -49.173 11.8918 2.34741 1 1.72159e-09 
1562 1 -47.5389 11.1733 0.612994 1 3.79406e-09 
2043 1 -47.2121 13.3289 1.81385 1 3.18603e-09 
2084 1 -45.5779 12.6105 0.0794525 1 2.03506e-09 
2082 1 -44.9243 12.6105 2.48117 1 2.39271e-09 
2085 1 -43.2901 11.892 0.746767 1 4.32612e-09 
2644 1 -41.3291 13.3291 0.213207 1 7.26997e-09 
2679 1 -41.0023 11.1736 1.41405 1 7.37315e-09 
2681 1 -39.0413 12.6106 0.880442 1 2.70965e-09 
3261 1 -36.7535 11.8921 1.54765 1 8.58707e-10 
3266 1 -34.7926 13.3292 1.014 1 9.53826e-10 
3296 1 -34.4657 11.1736 2.21484 1 1.62135e-09 
3881 1 -32.5048 12.6107 1.68118 1 4.17451e-09 
3884 1 -30.217 11.8921 2.34835 1 5.13631e-09 
3913 1 -28.5829 11.1736 0.613814 1 1.8449e-09 
4458 1 -28.256 13.3291 1.81465 1 3.95679e-09 
4497 1 -25.9683 12.6105 2.48179 1 9.9066e-09 
4499 1 -26.6219 12.6105 0.0801248 1 5.10993e-09 
4500 1 -24.3341 11.892 0.747305 1 1.12988e-08 
5079 1 -22.3732 13.329 0.213696 1 1.25203e-08 
5114 1 -22.0463 11.1735 1.41455 1 6.39487e-09 
5116 1 -20.0854 12.6105 0.880974 1 7.20334e-09 
5697 1 -17.7976 11.892 1.5483 1 2.06782e-08 
5702 1 -15.8367 13.3291 1.01477 1 9.40983e-08 
5732 1 -15.5099 11.1735 2.21567 1 1.90877e-07 
6317 1 -13.549 12.6104 1.68218 1 9.32691e-07 
6320 1 -11.2612 11.8919 2.34966 1 3.76604e-06 
6349 1 -9.62781 11.1729 0.615399 1 2.02303e-05 
6894 1 -9.30077 13.3287 1.81647 1 2.1765e-05 
6935 1 -7.66822 12.609 0.0822742 1 0.000115643 
6933 1 -7.01171 12.6114 2.48397 1 7.70379e-05 
6936 1 -5.38198 11.8886 0.751586 1 0.000954638 
7514 1 -3.41955 13.3165 0.225595 1 0.0151281 
7549 1 -3.0897 11.1706 1.42611 1 0.016703 
7551 1 -1.09442 12.5604 0.87862 5 5.24448 
11719 2 2.09774 13.2931 1.87979 5 3.63031 
12264 2 2.44869 11.2237 0.663468 5 5.68918 
12293 2 4.05588 11.8895 2.37402 1 0.0509181 
12296 2 6.32919 12.6145 1.69068 1 0.00210234 
12880 2 8.2956 11.1762 2.22104 1 0.000886226 
12909 2 8.61504 13.3338 1.02223 1 0.000404015 
12911 2 10.5792 11.8953 1.55587 1 7.97798e-05 
13497 2 12.8668 12.6132 0.889818 1 9.55819e-06 
13501 2 14.8279 11.1758 1.42402 1 1.91763e-06 
13530 2 15.155 13.3312 0.223309 1 6.92784e-07 
14113 2 17.1159 11.8942 0.757364 1 1.67224e-07 
10587 2 19.4038 12.6127 0.0906656 1 3.16987e-08 
14114 2 18.7501 12.6127 2.49217 1 9.25585e-08 
14149 2 21.0379 13.3312 1.82545 1 1.7355e-08 
14700 2 21.3648 11.1757 0.624671 1 7.37212e-09 
14729 2 22.9989 11.8942 2.35944 1 5.24399e-09 
14732 2 25.2867 12.6127 1.69265 1 1.22123e-09 
15316 2 27.2476 11.1756 2.22663 1 1.58175e-09 
15345 2 27.5745 13.3312 1.02585 1 1.17176e-09 
23 4 -74.6653 16.2016 1.54575 5 18.5856 
29 4 -74.9922 14.0461 0.344924 5 18.5856 
121 4 -72.3776 15.4831 2.21288 1 1.20102e-15 
122 4 -70.7434 14.7646 0.478349 1 4.99054e-16 
147 4 -68.4557 14.0461 1.14548 1 5.00008e-16 
294 4 -68.1289 16.2016 2.3463 1 2.99607e-09 
331 4 -66.4947 15.4831 0.611775 1 7.58536e-08 
333 1 -64.207 14.7647 1.27898 1 2.73102e-09 
599 1 -62.246 16.2019 0.745357 1 5.69853e-09 
642 1 -61.9192 14.0463 1.94619 1 3.75484e-09 
644 1 -59.9583 15.4835 1.41258 1 1.26141e-08 
1000 1 -57.6705 14.7651 2.07986 1 6.06385e-09 
1005 1 -55.7096 16.2023 1.54631 1 2.46971e-09 
1045 1 -56.0364 14.0467 0.345457 1 2.98275e-09 
1490 1 -53.4218 15.484 2.21363 1 1.92589e-09 
1491 1 -51.7876 14.7657 0.479246 1 1.20829e-08 
1532 1 -49.4999 14.0473 1.14656 1 3.54298e-09 
1997 1 -49.173 16.2029 2.34741 1 1.75419e-09 
2046 1 -47.5389 15.4844 0.612994 1 3.77856e-09 
2048 1 -45.2511 14.766 1.28032 1 5.6033e-09 
2600 1 -43.2901 16.2031 0.746768 1 4.4847e-09 
2643 1 -42.9633 14.0476 1.94762 1 5.04554e-09 
2645 1 -41.0023 15.4847 1.41405 1 7.43215e-09 
3219 1 -38.7145 14.7662 2.08129 1 7.86394e-09 
3224 1 -36.7535 16.2032 1.54765 1 8.99258e-10 
3264 1 -37.0804 14.0477 0.346811 1 3.43717e-09 
3841 1 -34.4657 15.4847 2.21484 1 1.73064e-09 
3842 1 -32.8316 14.7662 0.480354 1 3.08043e-09 
3883 1 -30.5438 14.0477 1.14751 1 8.29559e-09 
4412 1 -30.217 16.2032 2.34835 1 5.09949e-09 
4461 1 -28.5829 15.4847 0.613815 1 1.91836e-09 
4463 1 -26.2951 14.7661 1.28096 1 5.17109e-09 
5035 1 -24.3341 16.2031 0.747306 1 1.06952e-08 
5078 1 -24.0073 14.0475 1.94814 1 1.21518e-08 
5080 1 -22.0463 15.4846 1.41455 1 6.43801e-09 
5655 1 -19.7586 14.7661 2.08183 1 7.371e-09 
5660 1 -17.7976 16.2031 1.5483 1 1.99169e-08 
5700 1 -18.1244 14.0476 0.34743 1 1.51235e-08 
6277 1 -15.5099 15.4846 2.21567 1 1.90761e-07 
6278 1 -13.8758 14.7661 0.481268 1 4.30654e-07 
6319 1 -11.5883 14.0473 1.14878 1 4.64301e-06 
6848 1 -11.2612 16.203 2.34966 1 3.76911e-06 
6897 1 -9.62781 15.484 0.6154 1 2.03207e-05 
6899 1 -7.34036 14.7648 1.28347 1 0.000105593 
7470 1 -5.38198 16.1997 0.751582 1 0.000954525 
7513 1 -5.04889 14.0476 1.95131 1 0.00078503 
7515 1 -3.08969 15.4817 1.4261 1 0.0166978 
8070 1 -0.743019 14.7828 2.11947 5 3.92376 
11717 2 0.623203 14.0853 0.330314 5 10.3069 
11720 2 2.4487 15.5348 0.663479 5 5.68929 
11763 2 4.05587 16.2006 2.37401 1 0.0509095 
12292 2 4.36001 14.044 1.13779 1 0.0372844 
12329 2 6.64869 14.772 0.483182 1 0.00257713 
12333 2 8.2956 15.4873 2.22104 1 0.000885917 
12949 2 10.5792 16.2064 1.55587 1 7.97095e-05 
12912 2 10.9046 14.0508 0.355912 1 5.96516e-05 
12951 2 12.5399 14.7684 2.09063 1 1.04643e-05 
13529 2 14.8279 15.4869 1.42401 1 1.9243e-06 
13534 2 16.7891 14.0498 1.95809 1 3.73058e-07 
13572 2 17.1159 16.2053 0.757364 1 1.68913e-07 
14147 2 19.0769 14.7683 1.29142 1 4.99438e-08 
14150 2 21.3648 15.4868 0.624671 1 7.31197e-09 
14193 2 22.9989 16.2053 2.35944 1 5.33942e-09 
14728 2 23.3257 14.0497 1.15867 1 2.83382e-09 
14765 2 25.6135 14.7682 0.491866 1 6.10064e-10 
14769 2 27.2476 15.4867 2.22663 1 1.57715e-09 
22 4 -74.9922 18.3572 0.344924 5 18.5856 
103 4 -72.7044 17.6386 1.01205 1 1.79497e-15 
107 4 -70.7434 19.0757 0.478349 1 6.99054e-16 
123 4 -70.4166 16.9201 1.67918 1 1.099e-15 
297 4 -68.4557 18.3572 1.14548 1 8.00008e-16 
299 4 -66.1679 17.6386 1.8126 1 1.10635e-07 
332 1 -64.5338 16.9203 0.0781357 1 5.21426e-09 
554 1 -64.207 19.0758 1.27898 1 2.72756e-09 
598 1 -63.8802 16.9203 2.47983 1 5.38457e-09 
600 1 -61.9192 18.3574 1.94619 1 3.97115e-09 
602 1 -60.2851 17.639 0.211727 1 1.87845e-08 
1003 1 -57.9973 16.9206 0.87901 1 5.98293e-09 
955 1 -57.6705 19.0762 2.07986 1 5.72487e-09 
1004 1 -56.0364 18.3578 0.345457 1 2.75732e-09 
1442 1 -53.7486 17.6396 1.01277 1 1.42952e-09 
1446 1 -51.7876 19.0768 0.479246 1 1.20489e-08 
1492 1 -51.4608 16.9212 1.6801 1 1.19113e-08 
2000 1 -49.4999 18.3584 1.14656 1 3.43737e-09 
2002 1 -47.2121 17.64 1.81385 1 3.37307e-09 
2047 1 -45.5779 16.9216 0.0794527 1 2.0195e-09 
2547 1 -45.2511 19.0771 1.28032 1 6.35814e-09 
2599 1 -44.9243 16.9216 2.48117 1 2.3837e-09 
2601 1 -42.9633 18.3587 1.94762 1 5.27835e-09 
2603 1 -41.3291 17.6402 0.213207 1 7.73858e-09 
3174 1 -38.7145 19.0773 2.08129 1 7.89503e-09 
3222 1 -39.0413 16.9217 0.880442 1 2.63985e-09 
3223 1 -37.0804 18.3588 0.346811 1 3.57886e-09 
3793 1 -34.7926 17.6403 1.014 1 9.30882e-10 
3797 1 -32.8316 19.0773 0.480355 1 3.18079e-09 
3843 1 -32.5048 16.9218 1.68119 1 4.558e-09 
4415 1 -30.5438 18.3588 1.14751 1 8.32508e-09 
4417 1 -28.256 17.6402 1.81465 1 3.95013e-09 
4462 1 -26.6219 16.9217 0.0801244 1 5.55453e-09 
4982 1 -26.2951 19.0772 1.28096 1 4.88403e-09 
5034 1 -25.9683 16.9216 2.48179 1 9.45543e-09 
5036 1 -24.0073 18.3586 1.94814 1 1.24977e-08 
5038 1 -22.3732 17.6401 0.213696 1 1.28247e-08 
5658 1 -20.0854 16.9216 0.880974 1 7.8482e-09 
5610 1 -19.7586 19.0772 2.08183 1 7.83373e-09 
5659 1 -18.1244 18.3587 0.347431 1 1.47103e-08 
6229 1 -15.8367 17.6402 1.01477 1 9.54637e-08 
6233 1 -13.8758 19.0772 0.481268 1 4.2997e-07 
6279 1 -13.549 16.9215 1.68218 1 9.2509e-07 
6851 1 -11.5883 18.3584 1.14878 1 4.67681e-06 
6853 1 -9.30077 17.6398 1.81647 1 2.17632e-05 
6898 1 -7.66822 16.9202 0.082273 1 0.00011535 
7417 1 -7.34036 19.0759 1.28346 1 0.00010558 
7469 1 -7.01171 16.9225 2.48398 1 7.70648e-05 
7471 1 -5.04889 18.3587 1.95131 1 0.000785388 
7473 1 -3.41955 17.6276 0.225601 1 0.0151334 
8025 1 -0.743021 19.0939 2.11949 5 3.92378 
8073 1 -1.09442 16.8715 0.878623 5 5.24451 
11230 2 0.623225 18.3964 0.330304 5 10.3068 
11761 2 2.09774 17.6042 1.87979 5 3.63039 
11764 2 4.36002 18.3551 1.13779 1 0.0372801 
12328 2 6.32919 16.9256 1.69068 1 0.00210146 
12373 2 6.64869 19.0831 0.483183 1 0.00257578 
12375 2 8.61503 17.6449 1.02223 1 0.000404305 
12948 2 10.9046 18.3619 0.355911 1 5.97015e-05 
12952 2 12.8668 16.9243 0.889819 1 9.53638e-06 
12997 2 12.5399 19.0795 2.09064 1 1.04477e-05 
13570 2 15.155 17.6423 0.22331 1 6.8935e-07 
13571 2 16.7891 18.3609 1.95809 1 3.74468e-07 
10626 2 19.4038 16.9238 0.0906651 1 3.13366e-08 
13576 2 18.7501 16.9238 2.49217 1 9.28353e-08 
13622 2 19.0769 19.0794 1.29142 1 5.01262e-08 
14191 2 21.0379 17.6423 1.82545 1 1.69977e-08 
14194 2 23.3257 18.3608 1.15867 1 2.84823e-09 
14764 2 25.2867 16.9238 1.69265 1 1.15941e-09 
14809 2 25.6135 19.0793 0.491865 1 7.41567e-10 
14811 2 27.5745 17.6423 1.02585 1 1.1407e-09 
89 4 -74.6653 20.5127 1.54575 5 18.5856 
104 4 -72.3776 19.7942 2.21288 1 1.00102e-15 
268 4 -70.4166 21.2312 1.67918 1 7.99004e-16 
271 4 -68.1289 20.5127 2.3463 1 3.00886e-09 
298 4 -66.4947 19.7942 0.611775 1 7.55312e-08 
555 1 -63.8802 21.2314 2.47983 1 5.71492e-09 
557 1 -64.5338 21.2314 0.0781345 1 5.37755e-09 
558 1 -62.246 20.513 0.745357 1 5.2278e-09 
952 1 -59.9583 19.7946 1.41257 1 1.31899e-08 
954 1 -57.9973 21.2317 0.879009 1 5.57944e-09 
1384 1 -55.7096 20.5134 1.54631 1 2.63426e-09 
1443 1 -53.4218 19.7951 2.21363 1 1.83201e-09 
1945 1 -51.4608 21.2324 1.6801 1 1.18295e-08 
1948 1 -49.173 20.514 2.34741 1 1.82275e-09 
2001 1 -47.5389 19.7955 0.612994 1 3.62552e-09 
2550 1 -45.5779 21.2327 0.0794525 1 2.42031e-09 
2548 1 -44.9243 21.2327 2.48117 1 2.81749e-09 
2551 1 -43.2901 20.5142 0.746767 1 4.35885e-09 
3171 1 -41.0023 19.7958 1.41405 1 7.41629e-09 
3173 1 -39.0413 21.2328 0.880441 1 2.58134e-09 
3735 1 -36.7535 20.5144 1.54765 1 8.73237e-10 
3794 1 -34.4657 19.7958 2.21484 1 1.53588e-09 
4360 1 -32.5048 21.2329 1.68118 1 4.27448e-09 
4363 1 -30.217 20.5143 2.34835 1 5.23967e-09 
4416 1 -28.5829 19.7958 0.613814 1 2.03221e-09 
4983 1 -25.9683 21.2327 2.48179 1 9.29994e-09 
4985 1 -26.6219 21.2328 0.0801251 1 5.04414e-09 
4986 1 -24.3341 20.5142 0.747305 1 1.10565e-08 
5607 1 -22.0463 19.7957 1.41455 1 6.47284e-09 
5609 1 -20.0854 21.2327 0.880975 1 7.29804e-09 
6171 1 -17.7976 20.5142 1.5483 1 2.12762e-08 
6230 1 -15.5099 19.7957 2.21567 1 1.91291e-07 
6796 1 -13.549 21.2326 1.68218 1 9.32413e-07 
6799 1 -11.2612 20.5141 2.34966 1 3.76539e-06 
6852 1 -9.62781 19.7951 0.615399 1 2.02282e-05 
7420 1 -7.66822 21.2313 0.0822743 1 0.000115665 
7418 1 -7.01171 21.2336 2.48397 1 7.70281e-05 
7421 1 -5.38198 20.5108 0.751586 1 0.000954581 
7963 1 -3.41955 21.9387 0.225594 1 0.0151277 
8022 1 -3.0897 19.7928 1.42611 1 0.0167035 
8024 1 -1.09442 21.1826 0.878618 5 5.24445 
11286 2 2.09774 21.9153 1.87979 5 3.63032 
11760 2 2.44869 19.8459 0.663465 5 5.68916 
11813 2 4.05588 20.5117 2.37402 1 0.0509191 
11816 2 6.32919 21.2367 1.69068 1 0.00210212 
12374 2 8.2956 19.7984 2.22104 1 0.000886127 
12429 2 10.5792 20.5175 1.55587 1 7.97654e-05 
12996 2 12.8668 21.2354 0.889817 1 9.56285e-06 
13000 2 14.8279 19.798 1.42402 1 1.91975e-06 
13620 2 17.1159 20.5164 0.757365 1 1.67389e-07 
10323 2 19.4038 21.2349 0.0906656 1 3.17821e-08 
13621 2 18.7501 21.2349 2.49217 1 9.33267e-08 
14190 2 21.3648 19.7979 0.62467 1 7.33223e-09 
14243 2 22.9989 20.5164 2.35944 1 5.23648e-09 
14246 2 25.2867 21.2349 1.69265 1 1.28626e-09 
14810 2 27.2476 19.7978 2.22663 1 1.51517e-09 
92 4 -74.9922 22.6683 0.344924 5 18.5856 
94 4 -72.7044 21.9497 1.01205 1 1.59497e-15 
244 4 -72.3776 24.1053 2.21288 1 1.30102e-15 
245 4 -70.7434 23.3868 0.478349 1 9.99054e-16 
270 4 -68.4557 22.6683 1.14548 1 1.00001e-15 
514 4 -66.1679 21.9497 1.8126 1 1.11136e-07 
517 4 -66.4947 24.1053 0.611775 1 7.62413e-08 
519 1 -64.207 23.3869 1.27898 1 2.80707e-09 
896 1 -61.9192 22.6685 1.94619 1 3.33197e-09 
897 1 -60.2851 21.9501 0.211727 1 2.02566e-08 
898 1 -59.9583 24.1057 1.41258 1 1.30799e-08 
1321 1 -57.6705 23.3873 2.07986 1 6.17743e-09 
1387 1 -56.0364 22.6689 0.345456 1 3.26354e-09 
1389 1 -53.7486 21.9507 1.01277 1 1.32129e-09 
1882 1 -53.4218 24.1062 2.21363 1 1.94866e-09 
1883 1 -51.7876 23.3879 0.479246 1 1.19368e-08 
1947 1 -49.4999 22.6695 1.14656 1 3.70585e-09 
2486 1 -47.2121 21.9511 1.81385 1 3.04404e-09 
2489 1 -47.5389 24.1066 0.612994 1 3.89939e-09 
2491 1 -45.2511 23.3882 1.28032 1 5.70719e-09 
3111 1 -42.9633 22.6698 1.94762 1 5.07155e-09 
3112 1 -41.3291 21.9513 0.213207 1 8.01405e-09 
3113 1 -41.0023 24.1069 1.41405 1 7.29123e-09 
3672 1 -38.7145 23.3884 2.08129 1 7.66841e-09 
3738 1 -37.0804 22.6699 0.346811 1 3.44921e-09 
3740 1 -34.7926 21.9514 1.014 1 9.50382e-10 
4297 1 -34.4657 24.1069 2.21484 1 1.90646e-09 
4298 1 -32.8316 23.3884 0.480353 1 2.8856e-09 
4362 1 -30.5438 22.6699 1.14751 1 8.73641e-09 
4921 1 -28.256 21.9513 1.81465 1 4.02598e-09 
4924 1 -28.5829 24.1069 0.613815 1 1.83703e-09 
4926 1 -26.2951 23.3883 1.28096 1 4.87967e-09 
5547 1 -24.0073 22.6697 1.94814 1 1.24179e-08 
5548 1 -22.3732 21.9512 0.213696 1 1.30646e-08 
5549 1 -22.0463 24.1068 1.41455 1 6.43547e-09 
6108 1 -19.7586 23.3883 2.08183 1 7.53181e-09 
6174 1 -18.1244 22.6698 0.34743 1 1.52228e-08 
6176 1 -15.8367 21.9513 1.01477 1 9.44243e-08 
6733 1 -15.5099 24.1068 2.21567 1 1.8982e-07 
6734 1 -13.8758 23.3883 0.481268 1 4.33024e-07 
6798 1 -11.5883 22.6695 1.14878 1 4.64867e-06 
7356 1 -9.30077 21.9509 1.81647 1 2.17517e-05 
7359 1 -9.62781 24.1062 0.6154 1 2.03046e-05 
7361 1 -7.34036 23.387 1.28347 1 0.000105583 
7962 1 -5.04889 22.6698 1.95131 1 0.000785081 
7964 1 -3.0897 24.1039 1.42611 1 0.0166996 
8460 1 -0.743016 23.405 2.11947 5 3.92375 
11284 2 0.623199 22.7075 0.330309 5 10.3069 
11287 2 2.4487 24.157 0.663479 5 5.68928 
11812 2 4.36001 22.6662 1.13779 1 0.0372833 
11873 2 6.64869 23.3942 0.483182 1 0.00257647 
11877 2 8.2956 24.1095 2.22104 1 0.000886112 
12427 2 8.61503 21.956 1.02223 1 0.000404159 
12430 2 10.9046 22.673 0.355911 1 5.96642e-05 
12492 2 12.5399 23.3906 2.09063 1 1.04529e-05 
13052 2 14.8279 24.1091 1.42401 1 1.92752e-06 
13053 2 15.155 21.9534 0.223309 1 6.93134e-07 
13057 2 16.7891 22.672 1.95809 1 3.73547e-07 
13678 2 19.0769 23.3905 1.29142 1 4.94352e-08 
13680 2 21.0379 21.9534 1.82545 1 1.73543e-08 
13681 2 21.3648 24.109 0.624671 1 7.3667e-09 
14242 2 23.3257 22.6719 1.15867 1 2.84103e-09 
14303 2 25.6135 23.3904 0.491867 1 5.61762e-10 
14307 2 27.2476 24.1089 2.22663 1 1.75435e-09 
14863 2 27.5745 21.9534 1.02585 1 1.15775e-09 
85 4 -74.9922 26.9794 0.344924 5 18.5856 
86 4 -74.6653 24.8238 1.54575 5 18.5856 
226 4 -72.7044 26.2608 1.01205 1 1.29497e-15 
246 4 -70.4166 25.5423 1.67918 1 5.99004e-16 
480 4 -68.1289 24.8238 2.3463 1 3.05093e-09 
483 4 -68.4557 26.9794 1.14548 1 7.00008e-16 
485 4 -66.1679 26.2608 1.8126 1 1.10791e-07 
518 1 -64.5338 25.5425 0.0781362 1 5.10212e-09 
846 1 -63.8802 25.5425 2.47983 1 5.13995e-09 
847 1 -62.246 24.8241 0.745357 1 5.81504e-09 
848 1 -61.9192 26.9797 1.94619 1 4.08282e-09 
850 1 -60.2851 26.2612 0.211728 1 1.84381e-08 
1324 1 -57.9973 25.5428 0.87901 1 6.06001e-09 
1325 1 -56.0364 26.98 0.345458 1 2.5991e-09 
1326 1 -55.7096 24.8245 1.54631 1 2.38783e-09 
1819 1 -53.7486 26.2618 1.01277 1 1.43475e-09 
1884 1 -51.4608 25.5435 1.6801 1 1.20206e-08 
2422 1 -49.173 24.8251 2.34741 1 1.8012e-09 
2425 1 -49.4999 26.9806 1.14656 1 3.22072e-09 
2427 1 -47.2121 26.2622 1.81385 1 3.57882e-09 
2490 1 -45.5779 25.5438 0.0794531 1 1.70057e-09 
3047 1 -44.9243 25.5438 2.48117 1 2.15053e-09 
3048 1 -43.2901 24.8253 0.746768 1 4.53211e-09 
3049 1 -42.9633 26.9809 1.94762 1 5.16684e-09 
3051 1 -41.3291 26.2624 0.213206 1 6.91972e-09 
3675 1 -39.0413 25.5439 0.880442 1 2.70739e-09 
3676 1 -37.0804 26.981 0.346811 1 3.5085e-09 
3677 1 -36.7535 24.8255 1.54765 1 8.61806e-10 
4234 1 -34.7926 26.2625 1.014 1 9.87159e-10 
4299 1 -32.5048 25.544 1.68118 1 4.71529e-09 
4857 1 -30.217 24.8254 2.34835 1 5.03233e-09 
4860 1 -30.5438 26.981 1.14751 1 7.9895e-09 
4862 1 -28.256 26.2624 1.81465 1 3.87477e-09 
4925 1 -26.6219 25.5439 0.080125 1 5.15715e-09 
5483 1 -25.9683 25.5438 2.48179 1 9.8236e-09 
5484 1 -24.3341 24.8253 0.747306 1 1.09894e-08 
5485 1 -24.0073 26.9808 1.94814 1 1.20978e-08 
5487 1 -22.3732 26.2623 0.213696 1 1.26534e-08 
6111 1 -20.0854 25.5438 0.880974 1 7.84629e-09 
6112 1 -18.1244 26.9809 0.34743 1 1.48094e-08 
6113 1 -17.7976 24.8253 1.5483 1 1.97251e-08 
6670 1 -15.8367 26.2624 1.01477 1 9.46622e-08 
6735 1 -13.549 25.5437 1.68218 1 9.27649e-07 
7292 1 -11.2612 24.8252 2.34966 1 3.77166e-06 
7295 1 -11.5883 26.9807 1.14878 1 4.66807e-06 
7297 1 -9.30076 26.262 1.81647 1 2.17552e-05 
7360 1 -7.66822 25.5424 0.0822737 1 0.000115416 
7898 1 -7.01171 25.5447 2.48398 1 7.70787e-05 
7899 1 -5.38198 24.8219 0.751583 1 0.000954664 
7900 1 -5.04889 26.9809 1.95131 1 0.000785168 
7902 1 -3.41955 26.2498 0.225599 1 0.0151309 
8463 1 -1.09442 25.4937 0.878619 5 5.24445 
10879 2 0.623206 27.0186 0.330313 5 10.3069 
11348 2 2.09774 26.2264 1.87978 5 3.63032 
11350 2 4.05587 24.8228 2.37401 1 0.0509148 