ITEM: TIMESTEP
0
ITEM: NUMBER OF ATOMS
30088
ITEM: BOX BOUNDS ss pp pp
-69.3619 121.754
0 34.8462
0 49.28
ITEM: ATOMS id type x y z c_cna c_csd 
17 4 -68.1173 1.90319 2.20372 5 12.3904 
23 4 -65.8061 1.01425 1.95229 1 1.89976e-15 
116 4 -64.0282 2.43655 0.946578 1 1e-15 
117 4 -61.717 1.54761 0.695149 1 1.48001e-09 
838 4 -63.4948 0.125317 1.70086 1 1.29966e-15 
337 1 -59.4057 0.658646 0.443741 1 4.04973e-09 
335 1 -58.5168 2.61428 1.7009 1 1.38173e-09 
336 1 -57.9835 0.303021 2.45519 1 4.84303e-09 
701 1 -56.2056 1.72528 1.44953 1 4.97203e-09 
703 1 -53.8944 0.8363 1.19819 1 4.25658e-09 
1199 1 -52.1166 2.25858 0.192563 1 4.20906e-09 
1201 1 -50.6943 1.903 2.20404 1 4.1274e-09 
1779 1 -48.383 1.01409 1.95273 1 2.7768e-09 
1780 1 -46.6052 2.43642 0.947123 1 3.15856e-09 
2382 1 -44.2939 1.54755 0.695827 1 9.70077e-09 
3258 1 -46.0717 0.125196 1.70143 1 5.33817e-09 
2385 1 -41.9826 0.658689 0.444582 1 9.49298e-09 
2990 1 -41.0937 2.61441 1.70178 1 1.44998e-08 
2995 1 -40.5603 0.303194 2.45613 1 9.88806e-09 
2996 1 -38.7824 1.7256 1.45057 1 1.595e-08 
3604 1 -36.4712 0.836836 1.19938 1 1.12983e-08 
3608 1 -34.6933 2.25927 0.193816 1 1.57911e-08 
4208 1 -33.2709 1.9038 2.20535 1 3.39027e-08 
4214 1 -30.9597 1.01504 1.95409 1 7.83797e-08 
4824 1 -29.1818 2.43745 0.948402 1 1.54707e-07 
6292 1 -28.6486 0.126229 1.7028 1 1.36349e-07 
4825 1 -26.8707 1.54864 0.697034 1 3.46622e-07 
5434 1 -23.6703 2.6154 1.70284 1 7.64784e-07 
5435 1 -23.1376 0.30444 2.45713 1 1.582e-06 
5436 1 -24.5597 0.659874 0.445634 1 8.95012e-07 
6041 1 -21.3591 1.72674 1.45133 1 2.16183e-06 
6043 1 -19.0479 0.838271 1.19972 1 5.9274e-06 
6653 1 -17.2675 2.25976 0.194421 1 8.49631e-06 
6655 1 -15.8439 1.904 2.20591 1 1.70145e-05 
7265 1 -13.5309 1.0147 1.95469 1 4.0013e-05 
7266 1 -11.7479 2.43312 0.950101 1 0.000168684 
8746 1 -11.2176 0.12441 1.70452 1 0.000141118 
7870 1 -9.43371 1.53935 0.699819 1 0.000583103 
7873 1 -7.11744 0.645677 0.451395 1 0.00187361 
8478 1 -6.22651 2.60174 1.70486 1 0.00292101 
8483 1 -5.67606 0.294191 2.46433 1 0.00187457 
8484 1 -3.90304 1.72073 1.45443 1 0.0132241 
9092 1 -1.56375 0.865119 1.18187 5 1.43968 
9096 3 0.270515 2.35516 0.277502 5 6.70272 
9094 3 0.509102 0.778916 2.54003 5 5.33851 
14039 2 2.92651 1.00921 1.7567 2 4.57322 
14713 2 4.96815 1.97671 0.491267 1 0.0232856 
14714 2 5.30787 0.571965 2.47752 1 0.0433806 
14715 2 7.27678 1.46825 1.21802 1 0.00363355 
15406 2 9.59162 0.945665 1.96338 1 0.00202908 
15404 2 11.5393 1.8354 0.707522 1 0.000557212 
16083 2 13.8436 1.29966 1.46413 1 0.00010313 
16084 2 15.796 2.18834 0.207138 1 4.26822e-05 
16098 2 16.1502 0.764551 2.2206 1 2.31987e-05 
16774 2 18.1048 1.65359 0.963455 1 9.82374e-06 
16776 2 20.4148 1.11961 1.71899 1 4.79607e-06 
17454 2 22.3708 2.00857 0.462175 1 2.04568e-06 
17466 2 22.7258 0.586127 2.474 1 3.02131e-06 
17464 2 24.6818 1.47515 1.21712 1 1.43519e-06 
20 4 -68.6507 4.21441 1.44943 5 24.7808 
22 4 -66.3394 3.32548 1.19801 1 8.00042e-16 
109 4 -65.4505 5.28114 2.45515 1 8e-16 
110 4 -64.5616 4.74778 0.192292 1 5.97802e-16 
112 4 -63.1393 4.3922 2.20372 1 1.39958e-15 
333 4 -60.828 3.50327 1.95229 1 9.17352e-09 
334 1 -59.0502 4.92553 0.946594 1 6.40245e-09 
697 1 -56.739 4.03653 0.695223 1 7.61119e-09 
702 1 -54.4278 3.14755 0.443891 1 3.07094e-09 
1189 1 -53.5388 5.10318 1.70108 1 3.62019e-09 
1198 1 -53.0055 2.79194 2.45538 1 3.60787e-09 
1200 1 -51.2276 4.21425 1.44975 1 4.34413e-09 
1773 1 -48.9164 3.32532 1.19843 1 4.70621e-09 
1774 1 -48.0275 5.28099 2.45564 1 3.84218e-09 
1777 1 -47.1386 4.74765 0.192826 1 7.86962e-09 
2373 1 -45.7162 4.39211 2.20434 1 5.17437e-09 
2383 1 -43.405 3.50324 1.95303 1 1.79831e-08 
2993 1 -41.6271 4.92562 0.94748 1 1.16969e-08 
2994 1 -39.3158 4.03681 0.696238 1 1.40832e-08 
3601 1 -36.1155 5.10376 1.70226 1 1.40887e-08 
3607 1 -37.0046 3.14803 0.445029 1 1.17127e-08 
3605 1 -35.5822 2.79256 2.45658 1 2.04798e-08 
4211 1 -33.8043 4.215 1.45101 1 3.55946e-08 
4213 1 -31.493 3.32623 1.19973 1 7.78809e-08 
4817 1 -30.6039 5.28186 2.45696 1 6.98678e-08 
4818 1 -29.7151 4.74859 0.194122 1 7.88862e-08 
4820 1 -28.2927 4.39303 2.20563 1 1.22909e-07 
5432 1 -25.9815 3.50419 1.95427 1 2.8225e-07 
5433 1 -24.2031 4.92632 0.948797 1 3.69511e-07 
6037 1 -21.8916 4.03741 0.69743 1 1.05108e-06 
6042 1 -19.5797 3.14855 0.445985 1 2.98034e-06 
6643 1 -18.6895 5.10339 1.70407 1 9.96968e-06 
6652 1 -18.1565 2.79292 2.45741 1 7.06251e-06 
6654 1 -16.3764 4.21403 1.4528 1 2.74119e-05 
7259 1 -14.0624 3.32421 1.20142 1 7.0361e-05 
7260 1 -13.1764 5.27822 2.46121 1 0.000144666 
7263 1 -12.2837 4.7446 0.196306 1 0.000216851 
7861 1 -10.8633 4.38588 2.21065 1 0.000519862 
7871 1 -8.54846 3.49209 1.95934 1 0.00157303 
8481 1 -6.79286 4.91115 0.94948 1 0.00555962 
8482 1 -4.4741 4.02468 0.676524 1 0.00913357 
9089 1 -1.1585 5.17783 1.54373 5 3.57525 
9093 3 -0.756167 2.83885 2.37467 5 5.52254 
9095 1 -2.15454 3.1683 0.41447 1 0.0704244 
14027 2 1.7942 4.68285 0.0802696 5 5.12495 
14037 2 1.80592 3.19775 2.1112 5 7.32478 
14035 2 4.05225 4.28118 0.773537 1 0.160998 
14711 2 6.37017 3.78475 1.47906 1 0.00977253 
14712 2 8.32659 4.68661 0.210518 1 0.00191682 
14729 2 8.68677 3.25821 2.21841 1 0.00186867 
15402 2 10.6409 4.1505 0.958329 1 0.000273625 
15405 2 12.9545 3.61532 1.7121 1 0.000136623 
16082 2 14.9069 4.50217 0.456164 1 6.07142e-05 
16096 2 15.2645 3.07926 2.46869 1 4.90716e-05 
16094 2 17.2178 3.96697 1.2126 1 2.37829e-05 
16772 2 19.5279 3.43225 1.9688 1 5.89045e-06 
16773 2 21.4831 4.3207 0.712458 1 3.05687e-06 
17460 2 25.7496 4.6757 0.211209 1 3.87516e-07 
17462 2 23.7938 3.78687 1.46781 1 9.10424e-07 
17465 2 26.1048 3.2533 2.22285 1 5.60873e-07 
10 4 -69.184 6.52564 0.695149 5 37.1712 
21 4 -66.8728 5.63671 0.443721 1 4.98562e-16 
95 4 -65.9839 7.59236 1.70086 1 1.30086e-15 
111 4 -63.6726 6.70343 1.44943 1 9.00461e-16 
323 4 -61.3614 5.8145 1.19801 1 1.98849e-09 
324 4 -60.4725 7.77015 2.45515 1 1.02012e-08 
327 4 -59.5835 7.23679 0.192292 1 3.23617e-08 
682 1 -58.1613 6.88115 2.20375 1 6.56231e-09 
698 1 -55.8501 5.99215 1.9524 1 6.22434e-09 
1192 1 -54.0722 7.41442 0.946758 1 5.52985e-09 
1193 1 -51.761 6.52549 0.695455 1 2.68045e-09 
1776 1 -49.4498 5.63656 0.444138 1 5.98021e-09 
1765 1 -48.5608 7.59222 1.70134 1 4.02292e-09 
2376 1 -46.2496 6.70333 1.45005 1 7.05395e-09 
2378 1 -43.9384 5.81446 1.19876 1 1.2178e-08 
2980 1 -43.0494 7.77013 2.456 1 5.53164e-09 
2981 1 -42.1605 7.23681 0.193213 1 6.14669e-09 
2983 1 -40.7381 6.88132 2.20473 1 5.35836e-09 
3599 1 -38.4268 5.99253 1.95349 1 7.55238e-09 
3600 1 -36.6489 7.41494 0.947973 1 6.69139e-09 
4201 1 -34.3376 6.52618 0.696717 1 1.918e-08 
4212 1 -32.0263 5.6374 0.445441 1 3.87653e-08 
4803 1 -31.1372 7.59303 1.70272 1 5.69264e-08 
4819 1 -28.8259 6.70416 1.45143 1 8.26366e-08 
5422 1 -26.5145 5.81526 1.20013 1 1.5263e-07 
5423 1 -25.6254 7.77069 2.45761 1 4.66778e-07 
5426 1 -24.7363 7.23737 0.19478 1 5.20158e-07 
6022 1 -23.3138 6.88164 2.20643 1 1.25063e-06 
6038 1 -21.0019 5.99256 1.95526 1 3.54126e-06 
6646 1 -19.2239 7.41452 0.950366 1 9.61912e-06 
6647 1 -16.9114 6.52508 0.699392 1 2.84985e-05 
7251 1 -13.7158 7.59184 1.70641 1 6.04002e-05 
7262 1 -14.598 5.63528 0.448155 1 8.24499e-05 
7864 1 -11.4067 6.70088 1.45527 1 0.000247712 
7866 1 -9.10002 5.807 1.20382 1 0.0014815 
8468 1 -8.22647 7.77526 2.45684 1 0.00135762 
8469 1 -7.35069 7.23119 0.197389 1 0.00680273 
8471 1 -5.91463 6.89419 2.19076 1 0.0072184 
9087 1 -3.58075 6.02326 1.88676 1 0.0778204 
9088 1 -1.79801 7.48056 0.86161 1 0.355747 
13357 2 0.704349 6.87994 0.366043 5 4.85064 
13371 2 1.35188 5.58748 2.28724 5 5.38667 
14033 2 3.15353 6.60661 0.986843 1 0.156243 
14036 2 5.477 6.1167 1.72163 1 0.0223815 
14710 2 7.41953 7.00248 0.453971 1 0.00273566 
14727 2 7.79292 5.57748 2.46628 1 0.00252949 
14725 2 9.74154 6.46478 1.20714 1 0.000446593 
15400 2 12.059 5.92763 1.96224 1 9.64623e-05 
15401 2 14.0127 6.81345 0.707194 1 4.97437e-05 
16090 2 18.2822 7.16646 0.207726 1 1.66309e-05 
16092 2 16.3273 6.27905 1.46304 1 3.4671e-05 
16095 2 18.6395 5.74461 2.21899 1 1.80882e-05 
16770 2 20.5943 6.63259 0.963123 1 8.19106e-06 
16788 2 22.9055 6.0987 1.7185 1 2.81399e-06 
17458 2 24.861 6.9873 0.462127 1 1.2571e-06 
17459 2 25.2165 5.56494 2.47369 1 7.74852e-07 
11 4 -68.2951 8.4813 1.95229 5 18.5856 
98 4 -66.5172 9.90359 0.946578 1 1.00081e-15 
99 4 -64.206 9.01466 0.695149 1 7.99482e-16 
326 4 -61.8948 8.12573 0.443721 1 4.98562e-16 
309 4 -61.0058 10.0814 1.70086 1 4.34945e-09 
685 1 -58.6946 9.1924 1.44946 1 4.19958e-09 
686 1 -56.9168 10.6146 0.443783 1 5.76753e-09 
687 1 -56.3834 8.30339 1.19809 1 5.37798e-09 
1174 1 -55.4945 10.259 2.45526 1 7.07781e-09 
1175 1 -54.6055 9.72565 0.192445 1 7.07887e-09 
1177 1 -53.1832 9.37006 2.20394 1 3.19995e-09 
1763 1 -50.872 8.48114 1.95263 1 2.02611e-09 
1764 1 -49.0941 9.90344 0.947012 1 1.73586e-09 
2360 1 -46.7829 9.01454 0.695743 1 2.84601e-09 
2377 1 -44.4717 8.12566 0.444477 1 9.63629e-09 
2960 1 -43.5827 10.0813 1.70171 1 7.2208e-09 
2982 1 -41.2714 9.1925 1.45047 1 5.70171e-09 
3583 1 -38.9602 8.30371 1.19922 1 4.13883e-09 
3586 1 -39.4935 10.6149 0.444937 1 9.21869e-09 
3584 1 -38.0711 10.2594 2.45649 1 1.66488e-08 
3587 1 -37.1822 9.72611 0.193701 1 7.07976e-09 
4181 1 -35.7598 9.37062 2.20524 1 1.59588e-08 
4202 1 -33.4485 8.48185 1.95398 1 3.78118e-08 
4806 1 -31.6706 9.90421 0.948467 1 5.59641e-08 
4807 1 -29.3592 9.01533 0.697232 1 1.08443e-07 
5408 1 -26.159 10.082 1.7034 1 4.30347e-07 
5425 1 -27.0478 8.12638 0.445997 1 2.20469e-07 
6025 1 -23.8475 9.19291 1.45231 1 1.16742e-06 
6026 1 -22.0702 10.6153 0.446898 1 1.62602e-06 
6027 1 -21.5359 8.30376 1.20132 1 3.35326e-06 
6628 1 -20.6483 10.2598 2.45878 1 2.76204e-06 
6629 1 -19.759 9.72621 0.196009 1 4.67219e-06 
6631 1 -18.3372 9.37072 2.20799 1 7.7339e-06 
7249 1 -16.0263 8.48151 1.95726 1 2.12162e-05 
7250 1 -14.2537 9.90599 0.950706 1 3.51746e-05 
7848 1 -11.947 9.01729 0.699174 1 0.000132964 
7865 1 -9.64464 8.12694 0.447477 1 0.000840909 
8448 1 -8.76511 10.0881 1.7049 1 0.00166361 
8470 1 -6.46422 9.20125 1.45194 1 0.00502479 
9071 1 -4.14617 8.33061 1.18716 1 0.0155411 
9072 1 -3.20476 10.3099 2.41281 1 0.124818 
9074 1 -4.69636 10.6162 0.454506 1 0.0255461 
9075 1 -2.35726 9.76352 0.162499 1 0.35319 
9669 1 -0.866054 9.50013 2.28049 5 3.95955 
10938 3 -0.0346903 9.13159 0.168807 5 5.36654 
13367 2 2.13862 8.86299 1.19565 5 4.00883 
14031 2 4.50488 8.43499 1.97434 1 0.0857076 
14032 2 6.49015 9.30373 0.700349 1 0.00866767 
14720 2 10.2611 10.5424 2.46759 1 0.000376648 
14723 2 8.83207 8.77284 1.45754 1 0.000975878 
14721 2 10.7928 9.65435 0.204343 1 0.000283817 
14726 2 11.1592 8.237 2.21421 1 0.000215145 
15398 2 13.1158 9.12191 0.960212 1 7.9973e-05 
15419 2 15.4336 8.58886 1.71545 1 2.83633e-05 
16088 2 17.3896 9.47653 0.460105 1 1.51078e-05 
16089 2 17.7484 8.05554 2.47061 1 1.6143e-05 
16091 2 19.7036 8.94353 1.21478 1 7.95036e-06 
16114 2 21.1255 10.7208 2.22162 1 3.56851e-06 
16786 2 22.0161 8.4101 1.9697 1 4.49162e-06 
16784 2 23.9716 9.29861 0.713413 1 1.96768e-06 
2 4 -69.3618 13.1038 0.443721 5 37.1712 
3 4 -68.8284 10.7925 1.19801 5 24.7808 
74 4 -67.9395 12.7482 2.45515 5 12.3904 
75 4 -67.0506 12.2148 0.192292 1 6.97802e-16 
77 4 -65.6283 11.8592 2.20372 1 1.29998e-15 
280 4 -63.8504 13.2815 1.19801 1 9.00041e-16 
307 4 -63.3171 10.9703 1.95229 1 1.59976e-15 
308 4 -61.5392 12.3926 0.946578 1 1.50398e-09 
664 1 -59.228 11.5036 0.695166 1 5.66767e-09 
1148 1 -56.0278 12.5702 1.70096 1 5.04633e-09 
1176 1 -53.7166 11.6813 1.44961 1 4.61095e-09 
1741 1 -51.4054 10.7924 1.1983 1 4.01129e-09 
1744 1 -51.9387 13.1036 0.443981 1 6.14722e-09 
1742 1 -50.5164 12.748 2.45548 1 8.40169e-09 
1745 1 -49.6275 12.2147 0.192676 1 4.23333e-09 
2334 1 -48.2052 11.8591 2.20419 1 9.45501e-09 
2339 1 -46.4273 13.2814 1.19858 1 1.18799e-08 
2361 1 -45.8939 10.9702 1.95294 1 3.74383e-09 
2963 1 -44.116 12.3925 0.94736 1 7.64558e-09 
2964 1 -41.8048 11.5037 0.696159 1 1.50132e-08 
3564 1 -38.6045 12.5706 1.70216 1 7.94665e-09 
4184 1 -36.2932 11.6818 1.45094 1 1.34335e-08 
4185 1 -34.5153 13.1042 0.445377 1 3.07839e-08 
4186 1 -33.9819 10.793 1.1997 1 2.89003e-08 
4782 1 -33.093 12.7487 2.45693 1 5.6234e-08 
4783 1 -32.204 12.2154 0.194161 1 6.85443e-08 
4785 1 -30.7816 11.8599 2.20573 1 9.19248e-08 
5379 1 -29.0039 13.2823 1.20016 1 9.29177e-08 
5406 1 -28.4703 10.9709 1.95455 1 1.62458e-07 
5407 1 -26.6926 12.3933 0.949002 1 2.30684e-07 
6004 1 -24.3814 11.5044 0.697898 1 5.9017e-07 
6602 1 -21.1826 12.5716 1.70388 1 1.71881e-06 
6630 1 -18.8723 11.6829 1.45289 1 4.60102e-06 
7227 1 -16.5625 10.7944 1.20188 1 1.20813e-05 
7228 1 -15.6763 12.7519 2.45806 1 4.30063e-05 
7230 1 -17.0963 13.1066 0.446349 1 1.72464e-05 
7231 1 -14.7877 12.2189 0.194993 1 4.61864e-05 
7822 1 -13.3695 11.8643 2.20693 1 0.000128314 
7827 1 -11.5925 13.2885 1.20072 1 0.000290286 
7849 1 -11.0656 10.9766 1.95594 1 0.000429422 
8451 1 -9.29043 12.4002 0.951654 1 0.00116365 
8452 1 -6.9941 11.5079 0.704216 1 0.00620377 
9052 1 -3.71332 12.5892 1.69396 1 0.0583752 
9671 1 -1.24952 11.7241 1.27246 5 1.90896 
13362 2 2.63847 13.115 2.43095 5 3.78469 
13365 2 1.18267 11.2026 1.33867 5 2.37622 
13363 2 3.22458 12.2089 0.16264 1 0.132563 
13368 2 3.6764 10.8084 2.12534 1 0.34747 
14029 2 5.61719 11.6209 0.913089 1 0.0282779 
14050 2 7.04861 13.3872 1.95529 1 0.0201978 
14052 2 7.93316 11.0772 1.70519 1 0.00240103 
14719 2 9.89954 11.9592 0.457203 1 0.000543115 
14722 2 12.221 11.4282 1.21453 1 0.000149482 
14748 2 13.6496 13.2048 2.22346 1 0.000184274 
15417 2 14.5398 10.897 1.96927 1 4.37697e-05 
15415 2 16.4972 11.7856 0.713328 1 2.5852e-05 
16086 2 18.812 11.2535 1.4673 1 8.47692e-06 
16087 2 20.7685 12.1423 0.210841 1 4.80281e-06 
16112 2 20.2349 13.031 2.47389 1 6.6295e-06 
16782 2 23.0813 11.6094 0.965149 1 1.78356e-06 
16780 2 24.5037 13.3871 1.97135 1 1.16952e-06 
16785 2 25.3936 11.0763 1.71968 1 9.36078e-07 
46 4 -68.4729 15.0594 1.70086 5 12.3904 
76 4 -66.1616 14.1705 1.44943 1 1.00046e-15 
283 4 -64.3838 15.5928 0.443721 1 6.98562e-16 
281 4 -62.9615 15.2372 2.45515 1 7e-16 
284 4 -62.0725 14.7038 0.192292 1 6.97802e-16 
632 4 -60.6503 14.3483 2.20372 1 1.21375e-08 
637 1 -58.8724 15.7705 1.19803 1 3.91922e-09 
665 1 -58.339 13.4593 1.95233 1 2.04148e-09 
1151 1 -56.5612 14.8815 0.94666 1 4.92922e-09 
1152 1 -54.2499 13.9925 0.695301 1 8.18385e-09 
1714 1 -53.361 15.9482 1.95248 1 4.62698e-09 
1716 1 -51.0498 15.0592 1.70116 1 2.07068e-09 
2337 1 -48.7385 14.1703 1.44986 1 7.02676e-09 
2338 1 -46.9607 15.5926 0.444256 1 2.45873e-09 
2934 1 -45.5383 15.2371 2.45577 1 8.78697e-09 
2935 1 -44.6494 14.7038 0.192987 1 9.43977e-09 
2937 1 -43.2271 14.3482 2.20455 1 5.09777e-09 
3529 1 -41.4492 15.7706 1.19896 1 7.38468e-09 
3562 1 -40.9158 13.4594 1.95336 1 5.69324e-09 
3563 1 -39.1379 14.8818 0.947782 1 7.97698e-09 
4157 1 -36.8266 13.993 0.696592 1 1.22381e-08 
4158 1 -35.9377 15.9487 1.95377 1 8.72025e-09 
4751 1 -33.6264 15.06 1.70255 1 2.37476e-08 
4784 1 -31.3151 14.1712 1.45134 1 4.95259e-08 
5380 1 -28.1152 15.238 2.4573 1 1.04648e-07 
5382 1 -29.5374 15.5936 0.445707 1 6.94122e-08 
5383 1 -27.2262 14.7047 0.19447 1 1.13473e-07 
5972 1 -25.8042 14.3492 2.2061 1 2.42234e-07 
5977 1 -24.0267 15.7718 1.20019 1 8.52509e-07 
6005 1 -23.4933 13.4603 1.95494 1 6.37913e-07 
6605 1 -21.7161 14.8831 0.948903 1 2.38019e-06 
6606 1 -19.4059 13.9947 0.69762 1 6.43996e-06 
7200 1 -18.5166 15.9509 1.9541 1 1.25931e-05 
7202 1 -16.207 15.0631 1.70258 1 3.47469e-05 
7825 1 -13.8987 14.1757 1.45131 1 9.41635e-05 
7826 1 -12.1162 15.5976 0.445549 1 9.99458e-05 
8422 1 -10.6927 15.2412 2.45859 1 0.000194021 
8423 1 -9.8086 14.7098 0.196629 1 0.000385482 
8425 1 -8.38137 14.3521 2.21065 1 0.000814995 
9017 1 -6.58759 15.7624 1.21478 1 0.00361068 
9050 1 -6.06369 13.4625 1.96235 1 0.00512432 
9051 1 -4.26402 14.8627 0.976925 1 0.036964 
9645 1 -1.87904 14.0073 0.715542 5 2.16285 
9646 1 -0.869473 16.0781 1.83192 5 3.61344 
9647 3 0.298313 13.6559 1.90736 5 5.02108 
12742 2 1.62243 16.0153 2.25484 5 5.11828 
13361 2 2.33173 14.6392 0.414724 5 0.872591 
13364 2 4.70238 13.9039 1.15482 1 0.182676 
13388 2 6.24873 15.7088 2.17786 1 0.0836227 
14048 2 9.01888 14.2669 0.710309 1 0.00326018 
14049 2 10.4661 16.0489 1.71828 1 0.000878823 
14717 2 11.3341 13.7353 1.46864 1 0.000707824 
14746 2 12.7694 15.516 2.47516 1 0.000215468 
14718 2 13.2949 14.6259 0.212333 1 0.000233581 
15413 2 15.6078 14.0949 0.966248 1 7.96102e-05 
15411 2 17.0344 15.8742 1.97143 1 3.29975e-05 
15416 2 17.9215 13.5632 1.71996 1 2.35485e-05 
16085 2 19.8784 14.4526 0.462885 1 1.29426e-05 
16110 2 22.1912 13.92 1.21703 1 3.97596e-06 
16111 2 23.6142 15.6979 2.22293 1 2.67532e-06 
49 4 -69.0062 17.3706 0.946578 5 30.976 
50 4 -66.695 16.4817 0.695149 1 7.99282e-16 
247 4 -65.8061 18.4374 1.95229 1 1.49916e-15 
249 4 -63.4948 17.5484 1.70086 1 1.30086e-15 
635 4 -61.1836 16.6595 1.44943 1 5.0247e-09 
636 1 -59.4057 18.0818 0.443741 1 4.05005e-09 
1116 1 -57.9835 17.7261 2.45519 1 4.84296e-09 
1117 1 -57.0945 17.1928 0.192359 1 2.97738e-09 
1119 1 -55.6722 16.8371 2.20383 1 5.44675e-09 
1676 1 -53.8944 18.2594 1.19819 1 4.25657e-09 
1715 1 -51.5832 17.3705 0.946854 1 4.95024e-09 
2305 1 -49.2719 16.4815 0.695548 1 1.52313e-09 
2306 1 -48.383 18.4372 1.95273 1 2.7768e-09 
2897 1 -46.0717 17.5483 1.70143 1 5.33817e-09 
2936 1 -43.7605 16.6594 1.45018 1 6.50926e-09 
3532 1 -41.9826 18.0818 0.444582 1 9.49298e-09 
3530 1 -40.5603 17.7263 2.45613 1 9.88804e-09 
3533 1 -39.6714 17.193 0.193389 1 8.91138e-09 
4120 1 -38.249 16.8375 2.20496 1 4.79961e-09 
4125 1 -36.4712 18.2599 1.19938 1 1.12983e-08 
4754 1 -34.1599 17.3712 0.94817 1 1.52166e-08 
4755 1 -31.8486 16.4824 0.696942 1 3.48962e-08 
5346 1 -30.9597 18.4381 1.95409 1 7.83796e-08 
5348 1 -28.6486 17.5493 1.7028 1 1.36349e-07 
5975 1 -26.3376 16.6605 1.4515 1 3.21704e-07 
5976 1 -24.5597 18.083 0.445634 1 8.95012e-07 
6570 1 -23.1376 17.7276 2.45713 1 1.582e-06 
6571 1 -22.2489 17.1943 0.194196 1 2.39097e-06 
6573 1 -20.8269 16.8391 2.20565 1 4.46617e-06 
7162 1 -19.0479 18.2614 1.19972 1 5.9274e-06 
7201 1 -16.7367 17.3732 0.948031 1 1.57705e-05 
7793 1 -14.4259 16.4853 0.696455 1 4.09309e-05 
7794 1 -13.5309 18.4378 1.95469 1 4.0013e-05 
8385 1 -11.2176 17.5475 1.70452 1 0.000141118 
8424 1 -8.90296 16.6565 1.45662 1 0.000597552 
9018 1 -5.67606 17.7173 2.46433 1 0.00187457 
9020 1 -7.11744 18.0688 0.451395 1 0.00187361 
9021 1 -4.80784 17.1698 0.211925 1 0.00847697 
9608 1 -3.34052 16.8249 2.19663 1 0.0692109 
9613 1 -1.56375 18.2882 1.18187 5 1.43968 
10170 3 0.509102 18.202 2.54003 5 5.33851 
12739 2 1.22975 17.417 0.306451 5 5.42168 
12740 2 2.92651 18.4323 1.7567 2 4.57322 
13359 2 3.90865 16.2213 1.43242 5 1.62439 
13386 2 5.30787 17.9951 2.47752 1 0.0433806 
13360 2 5.86062 17.1114 0.197529 1 0.0204291 
14044 2 9.59162 18.3688 1.96338 1 0.00202908 
14046 2 8.17374 16.5837 0.949856 1 0.00983832 
14716 2 12.4194 16.9402 0.460974 1 0.000241415 
14742 2 13.8436 18.7228 1.46413 1 0.00010313 
14744 2 14.7248 16.4069 1.21673 1 7.13145e-05 
14745 2 16.1502 18.1877 2.2206 1 2.31987e-05 
15412 2 18.9906 16.7639 0.7139 1 1.49025e-05 
15443 2 20.4148 18.5427 1.71899 1 4.79607e-06 
16105 2 22.7258 18.0092 2.474 1 3.02131e-06 
16106 2 23.2586 17.12 0.211516 1 3.27313e-06 
16108 2 21.3022 16.2309 1.46848 1 6.87575e-06 
16778 2 25.5704 16.587 0.966052 1 1.36322e-06 
31 4 -68.1173 19.3263 2.20372 5 12.3904 
203 4 -66.3394 20.7486 1.19801 1 1.00004e-15 
248 4 -64.0282 19.8597 0.946578 1 1.1e-15 
597 4 -61.717 18.9707 0.695149 1 1.47988e-09 
598 4 -60.828 20.9264 1.95229 1 9.16861e-09 
1074 1 -58.5168 20.0374 1.7009 1 1.38185e-09 
1118 1 -56.2056 19.1484 1.44953 1 4.97202e-09 
1679 1 -54.4278 20.5707 0.443891 1 3.07096e-09 
1677 1 -53.0055 20.2151 2.45538 1 3.60787e-09 
1680 1 -52.1166 19.6817 0.192563 1 4.20906e-09 
2262 1 -50.6943 19.3261 2.20404 1 4.12743e-09 
2267 1 -48.9164 20.7484 1.19843 1 4.70623e-09 
2900 1 -46.6052 19.8595 0.947123 1 3.15856e-09 
2901 1 -44.2939 18.9707 0.695827 1 9.70076e-09 
3491 1 -43.405 20.9264 1.95303 1 1.79831e-08 
3493 1 -41.0937 20.0375 1.70178 1 1.44998e-08 
4123 1 -38.7824 19.1487 1.45057 1 1.59501e-08 
4124 1 -37.0046 20.5711 0.445029 1 1.17127e-08 
4713 1 -35.5822 20.2157 2.45658 1 2.04798e-08 
4714 1 -34.6933 19.6824 0.193816 1 1.57911e-08 
4716 1 -33.2709 19.3269 2.20535 1 3.39027e-08 
5302 1 -31.493 20.7493 1.19973 1 7.7881e-08 
5347 1 -29.1818 19.8606 0.948402 1 1.54707e-07 
5937 1 -26.8707 18.9718 0.697034 1 3.46622e-07 
5938 1 -25.9815 20.9273 1.95427 1 2.8225e-07 
6528 1 -23.6703 20.0385 1.70284 1 7.64784e-07 
6572 1 -21.3591 19.1498 1.45133 1 2.16183e-06 
7163 1 -18.1565 20.216 2.45741 1 7.06251e-06 
7165 1 -19.5797 20.5717 0.445985 1 2.98034e-06 
7166 1 -17.2675 19.6829 0.194421 1 8.49631e-06 
7750 1 -15.8439 19.3271 2.20591 1 1.70145e-05 
7755 1 -14.0624 20.7473 1.20142 1 7.0361e-05 
8388 1 -11.7479 19.8562 0.950101 1 0.000168684 
8389 1 -9.43371 18.9625 0.699819 1 0.000583103 
8979 1 -8.54846 20.9152 1.95934 1 0.00157303 
8981 1 -6.22651 20.0249 1.70486 1 0.00292101 
9611 1 -3.90304 19.1438 1.45443 1 0.0132241 
9612 1 -2.15454 20.5914 0.41447 1 0.0704244 
10171 3 -0.756167 20.262 2.37467 5 5.52254 
10172 3 0.270515 19.7783 0.277502 5 6.70272 
12737 2 1.80592 20.6209 2.1112 5 7.32478 
13358 2 4.96815 19.3998 0.491267 1 0.0232856 
13382 2 6.37017 21.2079 1.47906 1 0.00977253 
13384 2 7.27678 18.8914 1.21802 1 0.00363355 
13385 2 8.68677 20.6813 2.21841 1 0.00186867 
14045 2 11.5393 19.2585 0.707522 1 0.000557212 
14078 2 12.9545 21.0384 1.7121 1 0.000136623 
14739 2 15.2645 20.5024 2.46869 1 4.90716e-05 
14740 2 15.796 19.6114 0.207138 1 4.26822e-05 
14741 2 17.2178 21.3901 1.2126 1 2.37829e-05 
15409 2 18.1048 19.0767 0.963455 1 9.82374e-06 
15441 2 19.5279 20.8554 1.9688 1 5.89045e-06 
16104 2 22.3708 19.4317 0.462175 1 2.04568e-06 
16102 2 23.7938 21.21 1.46781 1 9.10424e-07 
16107 2 24.6818 18.8983 1.21712 1 1.43519e-06 
16142 2 26.1048 20.6764 2.22285 1 5.60873e-07 
24 4 -69.184 23.9488 0.695149 5 37.1712 
30 4 -68.6507 21.6375 1.44943 5 24.7808 
206 4 -66.8728 23.0598 0.443721 1 7.98561e-16 
204 4 -65.4505 22.7042 2.45515 1 6e-16 
207 4 -64.5616 22.1709 0.192292 1 8.97802e-16 
549 4 -63.1393 21.8153 2.20372 1 1.19958e-15 
554 4 -61.3614 23.2376 1.19801 1 1.98936e-09 
1077 1 -59.0502 22.3486 0.946594 1 6.40284e-09 
1078 1 -56.739 21.4596 0.695223 1 7.61127e-09 
1632 1 -55.8501 23.4153 1.9524 1 6.22424e-09 
1634 1 -53.5388 22.5263 1.70108 1 3.62019e-09 
2216 1 -51.761 23.9486 0.695455 1 2.68045e-09 
2265 1 -51.2276 21.6374 1.44975 1 4.34415e-09 
2266 1 -49.4498 23.0597 0.444138 1 5.98021e-09 
2854 1 -48.0275 22.7041 2.45564 1 3.84217e-09 
2855 1 -47.1386 22.1708 0.192826 1 7.8696e-09 
2857 1 -45.7162 21.8152 2.20434 1 5.17434e-09 
3441 1 -43.9384 23.2376 1.19876 1 1.2178e-08 
3492 1 -41.6271 22.3487 0.94748 1 1.16968e-08 
4079 1 -39.3158 21.4599 0.696238 1 1.40831e-08 
4080 1 -38.4268 23.4156 1.95349 1 7.5524e-09 
4665 1 -36.1155 22.5269 1.70226 1 1.40887e-08 
4669 1 -34.3376 23.9493 0.696717 1 1.918e-08 
4715 1 -33.8043 21.6381 1.45101 1 3.55947e-08 
5305 1 -32.0263 23.0605 0.445441 1 3.87652e-08 
5303 1 -30.6039 22.705 2.45696 1 6.98679e-08 
5306 1 -29.7151 22.1717 0.194122 1 7.88861e-08 
5889 1 -28.2927 21.8161 2.20563 1 1.2291e-07 
5894 1 -26.5145 23.2384 1.20013 1 1.5263e-07 
6531 1 -24.2031 22.3494 0.948797 1 3.69511e-07 
6532 1 -21.8916 21.4605 0.69743 1 1.05108e-06 
7118 1 -21.0019 23.4157 1.95526 1 3.54126e-06 
7120 1 -18.6895 22.5265 1.70407 1 9.96968e-06 
7704 1 -16.9114 23.9482 0.699392 1 2.84985e-05 
7753 1 -16.3764 21.6371 1.4528 1 2.74119e-05 
7754 1 -14.598 23.0584 0.448155 1 8.24499e-05 
8342 1 -13.1764 22.7013 2.46121 1 0.000144666 
8343 1 -12.2837 22.1677 0.196306 1 0.000216851 
8344 1 -11.4067 24.124 1.45527 1 0.000247712 
8345 1 -10.8633 21.809 2.21065 1 0.000519862 
8929 1 -9.10002 23.2301 1.20382 1 0.0014815 
8980 1 -6.79286 22.3343 0.94948 1 0.00555962 
9567 1 -4.4741 21.4478 0.676524 1 0.00913357 
9568 1 -3.58075 23.4464 1.88676 1 0.0778204 
10129 1 -1.1585 22.6009 1.54373 5 3.57525 
12187 2 1.35188 23.0106 2.28724 5 5.38667 
12736 2 1.7942 22.106 0.0802696 5 5.12495 
12735 2 3.15353 24.0297 0.986843 1 0.156243 
12738 2 4.05225 21.7043 0.773537 1 0.160998 
12754 2 5.477 23.5398 1.72163 1 0.0223815 
13379 2 7.79292 23.0006 2.46628 1 0.00252949 
13380 2 8.32659 22.1097 0.210518 1 0.00191682 
13381 2 9.74154 23.8879 1.20714 1 0.000446593 
14042 2 10.6409 21.5736 0.958329 1 0.000273625 
14076 2 12.059 23.3507 1.96224 1 9.64623e-05 
14738 2 14.9069 21.9253 0.456164 1 6.07142e-05 
14736 2 16.3273 23.7022 1.46304 1 3.4671e-05 
14778 2 18.6395 23.1677 2.21899 1 1.80882e-05 
15437 2 20.5943 24.0557 0.963123 1 8.19106e-06 
15439 2 21.4831 21.7438 0.712458 1 3.05687e-06 
15440 2 22.9055 23.5218 1.7185 1 2.81399e-06 
16103 2 25.7496 22.0988 0.211209 1 3.87516e-07 
16140 2 25.2165 22.988 2.47369 1 7.74852e-07 
163 4 -68.2951 25.9044 1.95229 5 18.5856 
165 4 -65.9839 25.0155 1.70086 1 1.20086e-15 
497 4 -64.206 26.4378 0.695149 1 9.99282e-16 
552 4 -63.6726 24.1265 1.44943 1 1.00046e-15 
553 4 -61.8948 25.5488 0.443721 1 7.98562e-16 
1025 4 -60.4725 25.1933 2.45515 1 1.02013e-08 
1026 4 -59.5835 24.6599 0.192292 1 3.23636e-08 
1027 1 -58.6946 26.6155 1.44946 1 4.20004e-09 
1028 1 -58.1613 24.3043 2.20375 1 6.56238e-09 
1577 1 -56.3834 25.7265 1.19809 1 5.37801e-09 
1633 1 -54.0722 24.8375 0.946758 1 5.52982e-09 
2156 1 -53.1832 26.7932 2.20394 1 3.19996e-09 
2217 1 -50.872 25.9043 1.95263 1 2.02609e-09 
2800 1 -48.5608 25.0153 1.70134 1 4.02293e-09 
2804 1 -46.7829 26.4377 0.695743 1 2.84601e-09 
2856 1 -46.2496 24.1264 1.45005 1 7.05397e-09 
3444 1 -44.4717 25.5488 0.444477 1 9.63629e-09 
3442 1 -43.0494 25.1932 2.456 1 5.53163e-09 
3445 1 -42.1605 24.6599 0.193213 1 6.1467e-09 
4028 1 -41.2714 26.6156 1.45047 1 5.70173e-09 
4025 1 -40.7381 24.3044 2.20473 1 5.35837e-09 
4030 1 -38.9602 25.7268 1.19922 1 4.13883e-09 
4668 1 -36.6489 24.838 0.947973 1 6.69139e-09 
4614 1 -35.7598 26.7937 2.20524 1 1.59588e-08 
5253 1 -33.4485 25.905 1.95398 1 3.78119e-08 
5255 1 -31.1372 25.0161 1.70272 1 5.69265e-08 
5837 1 -29.3592 26.4384 0.697232 1 1.08443e-07 
5892 1 -28.8259 24.1273 1.45143 1 8.26367e-08 
5893 1 -27.0478 25.5495 0.445997 1 2.20469e-07 
6479 1 -25.6254 25.1938 2.45761 1 4.66778e-07 
6480 1 -24.7363 24.6605 0.19478 1 5.20158e-07 
6481 1 -23.8475 26.616 1.45231 1 1.16742e-06 
6482 1 -23.3138 24.3048 2.20643 1 1.25063e-06 
7063 1 -21.5359 25.7269 1.20132 1 3.35326e-06 
7119 1 -19.2239 24.8376 0.950366 1 9.61912e-06 
7644 1 -18.3372 26.7938 2.20799 1 7.7339e-06 
7705 1 -16.0263 25.9046 1.95726 1 2.12162e-05 
8288 1 -13.7158 25.015 1.70641 1 6.04002e-05 
8292 1 -11.947 26.4404 0.699174 1 0.000132964 
8930 1 -8.22647 25.1984 2.45684 1 0.00135762 
8932 1 -9.64464 25.5501 0.447477 1 0.000840909 
8933 1 -7.35069 24.6543 0.197389 1 0.00680273 
9513 1 -5.91463 24.3173 2.19076 1 0.0072184 
9516 1 -6.46422 26.6244 1.45194 1 0.00502479 
9518 1 -4.14617 25.7537 1.18716 1 0.0155411 
10132 1 -1.79801 24.9037 0.86161 1 0.355747 
12183 3 -0.0346903 26.5547 0.168807 5 5.36654 
12185 2 0.704349 24.3031 0.366043 5 4.85064 
12186 2 2.13862 26.2861 1.19565 5 4.00883 
12752 2 4.50488 25.8581 1.97434 1 0.0857076 
12750 2 6.49015 26.7268 0.700349 1 0.00866767 
13378 2 7.41953 24.4256 0.453971 1 0.00273566 
13376 2 8.83207 26.196 1.45754 1 0.000975878 
13417 2 11.1592 25.6601 2.21421 1 0.000215145 
14072 2 13.1158 26.545 0.960212 1 7.9973e-05 
14074 2 14.0127 24.2366 0.707194 1 4.97437e-05 
14075 2 15.4336 26.012 1.71545 1 2.83633e-05 
14737 2 18.2822 24.5896 0.207726 1 1.66309e-05 
14776 2 17.7484 25.4786 2.47061 1 1.6143e-05 
14774 2 19.7036 26.3666 1.21478 1 7.95036e-06 
15435 2 22.0161 25.8332 1.9697 1 4.49162e-06 
15436 2 23.9716 26.7217 0.713413 1 1.96768e-06 
16101 2 24.861 24.4104 0.462127 1 1.2571e-06 
133 4 -68.8284 28.2156 1.19801 5 24.7808 
164 4 -66.5172 27.3267 0.946578 1 1.20001e-15 
435 4 -65.6283 29.2824 2.20372 1 1.09958e-15 
498 4 -63.3171 28.3934 1.95229 1 1.39916e-15 
966 4 -61.0058 27.5045 1.70086 1 4.34651e-09 
970 1 -59.228 28.9268 0.695166 1 5.66807e-09 
1580 1 -56.9168 28.0377 0.443783 1 5.76755e-09 
1578 1 -55.4945 27.6821 2.45526 1 7.07785e-09 
1581 1 -54.6055 27.1488 0.192445 1 7.07888e-09 
2159 1 -53.7166 29.1044 1.44961 1 4.61096e-09 
2161 1 -51.4054 28.2155 1.1983 1 4.01128e-09 
2803 1 -49.0941 27.3266 0.947012 1 1.73586e-09 
2743 1 -48.2052 29.2822 2.20419 1 9.45505e-09 
3386 1 -45.8939 28.3933 1.95294 1 3.74385e-09 
3388 1 -43.5827 27.5044 1.70171 1 7.22078e-09 
3968 1 -41.8048 28.9268 0.696159 1 1.50132e-08 
4029 1 -39.4935 28.038 0.444937 1 9.2187e-09 
4611 1 -38.0711 27.6825 2.45649 1 1.66488e-08 
4612 1 -37.1822 27.1492 0.193701 1 7.07975e-09 
4613 1 -36.2932 29.1049 1.45094 1 1.34335e-08 
5192 1 -33.9819 28.2161 1.1997 1 2.89003e-08 
5254 1 -31.6706 27.3273 0.948467 1 5.59641e-08 
5772 1 -30.7816 29.283 2.20573 1 9.19249e-08 
5838 1 -28.4703 28.3941 1.95455 1 1.62458e-07 
6420 1 -26.159 27.5051 1.7034 1 4.30347e-07 
6424 1 -24.3814 28.9275 0.697898 1 5.9017e-07 
7064 1 -20.6483 27.6829 2.45878 1 2.76204e-06 
7066 1 -22.0702 28.0384 0.446898 1 1.62602e-06 
7067 1 -19.759 27.1493 0.196009 1 4.67219e-06 
7647 1 -18.8723 29.106 1.45289 1 4.60102e-06 
7649 1 -16.5625 28.2175 1.20188 1 1.20813e-05 
8231 1 -13.3695 29.2874 2.20693 1 0.000128314 
8291 1 -14.2537 27.3291 0.950706 1 3.51746e-05 
8874 1 -11.0656 28.3997 1.95594 1 0.000429422 
8876 1 -8.76511 27.5112 1.7049 1 0.00166361 
9456 1 -6.9941 28.931 0.704216 1 0.00620377 
9517 1 -4.69636 28.0393 0.454506 1 0.0255461 
10076 1 -3.20476 27.733 2.41281 1 0.124818 
10077 1 -2.35726 27.1866 0.162499 1 0.35319 
10078 1 -1.24952 29.1472 1.27246 5 1.90896 
10079 1 -0.866054 26.9232 2.28049 5 3.95955 
12181 2 1.18267 28.6257 1.33867 5 2.37622 
12195 2 3.6764 28.2315 2.12534 1 0.34747 
12748 2 5.61719 29.044 0.913089 1 0.0282779 
12751 2 7.93316 28.5003 1.70519 1 0.00240103 
13375 2 9.89954 29.3823 0.457203 1 0.000543115 
13415 2 10.2611 27.9655 2.46759 1 0.000376648 