ITEM: TIMESTEP
0
ITEM: NUMBER OF ATOMS
17725
ITEM: BOX BOUNDS ss pp pp
-67.5957 124.959
0 30.4841
0 32.9266
ITEM: ATOMS id type x y z c_cna c_csd 
98 4 -66.2377 0.0102342 2.51716 5 12.3904 
99 4 -65.9662 2.04251 1.10602 5 6.1952 
101 4 -67.0525 0.0102342 0.165259 5 24.7808 
102 4 -64.6083 0.0102342 0.635638 1 9.02296e-16 
282 4 -63.522 2.04251 1.5764 1 8.9964e-16 
326 4 -61.0778 2.04251 2.04678 1 7e-16 
328 4 -62.1641 0.0102342 1.10602 1 1.00306e-15 
329 4 -59.72 0.0102342 1.5764 1 1.80037e-09 
605 4 -58.6337 2.04251 2.51716 1 1.20073e-08 
608 4 -59.4484 2.04251 0.165259 1 2.60387e-09 
610 1 -57.0042 2.04253 0.635596 1 9.92198e-09 
652 1 -57.2758 0.0102521 2.04674 1 1.19213e-08 
653 1 -55.6463 0.0102945 0.165153 1 3.89017e-09 
654 1 -54.8316 0.010329 2.51702 1 3.13417e-09 
998 1 -54.56 2.04261 1.10587 1 4.08339e-09 
999 1 -53.2021 0.0103876 0.635409 1 1.58517e-09 
1000 1 -52.1158 2.0427 1.5761 1 3.81925e-09 
1043 1 -50.7579 0.0104517 1.10566 1 2.06937e-09 
1422 1 -49.6716 2.04276 2.04637 1 2.01017e-09 
1423 1 -48.3138 0.0105017 1.57592 1 2.17096e-09 
1424 1 -48.0422 2.04278 0.164761 1 2.69537e-09 
1425 1 -47.2274 2.04279 2.51661 1 9.43141e-10 
1467 1 -45.8696 0.0105431 2.04615 1 5.58699e-09 
1807 1 -45.598 2.04282 0.634986 1 1.00763e-08 
1851 1 -43.4254 0.010527 2.5164 1 1.52749e-08 
1852 1 -43.1538 2.04279 1.10525 1 1.06441e-08 
1854 1 -44.2401 0.0105419 0.164536 1 1.36263e-08 
1855 1 -41.7959 0.0104701 0.634826 1 7.40749e-09 
2235 1 -40.7096 2.04269 1.57555 1 3.19771e-09 
2280 1 -38.2654 2.04255 2.04589 1 1.44386e-09 
2282 1 -39.3517 0.0103424 1.10513 1 4.45601e-09 
2283 1 -36.9075 0.0102062 1.57547 1 7.70642e-10 
2663 1 -35.8212 2.04242 2.51621 1 1.61687e-09 
2666 1 -36.6359 2.04247 0.164323 1 6.34403e-10 
2668 1 -34.1917 2.04233 0.634645 1 2.62647e-09 
2710 1 -34.4633 0.0100701 2.04579 1 2.03881e-09 
2711 1 -32.8338 0.0099862 0.164229 1 5.00801e-09 
2712 1 -32.0191 0.00993958 2.51612 1 5.4524e-09 
3094 1 -31.7475 2.0422 1.10498 1 2.5109e-09 
3095 1 -30.3896 0.00983712 0.634597 1 3.86518e-09 
3096 1 -29.3033 2.04204 1.57534 1 4.02277e-09 
3139 1 -27.9453 0.00968851 1.10495 1 3.0989e-09 
3522 1 -26.859 2.04191 2.04569 1 2.03311e-09 
3523 1 -25.5011 0.00956071 1.57529 1 4.03479e-09 
3524 1 -25.2295 2.04182 0.164138 1 2.79086e-09 
3525 1 -24.4148 2.04176 2.51603 1 1.63521e-09 
3567 1 -23.0568 0.00939788 2.04563 1 3.50213e-09 
3907 1 -22.7852 2.04166 0.634495 1 2.41563e-09 
3951 1 -20.6126 0.0092483 2.51598 1 2.99943e-08 
3952 1 -20.341 2.04151 1.10487 1 2.07946e-08 
3954 1 -21.4273 0.00929815 0.164086 1 1.64109e-08 
3955 1 -18.9831 0.00913132 0.634475 1 6.96148e-08 
4335 1 -17.8967 2.04134 1.57532 1 1.32331e-07 
4380 1 -15.4525 2.04115 2.04586 1 8.42297e-07 
4382 1 -16.5389 0.0089217 1.1049 1 5.13989e-07 
4383 1 -14.0949 0.0087649 1.57531 1 4.83286e-06 
4763 1 -13.0082 2.04111 2.51653 1 7.34954e-06 
4766 1 -13.8231 2.04102 0.164497 1 3.33519e-06 
4768 1 -11.3792 2.04137 0.635378 1 3.49924e-05 
4810 1 -11.6513 0.00900163 2.04564 1 4.49947e-05 
4811 1 -10.022 0.00896865 0.164196 1 0.000168869 
4812 1 -9.20853 0.0102196 2.51607 1 0.00042558 
5191 1 -8.93598 2.04414 1.10751 1 0.000522565 
5192 1 -7.5819 0.0133958 0.635487 1 0.002196 
5193 1 -6.4942 2.05523 1.58445 1 0.00704101 
5236 1 -5.15094 0.0338347 1.11094 1 0.025458 
5588 1 -4.04771 2.08242 2.07316 1 0.0697959 
5589 1 -2.73392 0.0704438 1.60733 1 0.243704 
5590 1 -2.5535 2.0749 0.156621 5 1.33543 
5591 1 -1.53365 2.09672 2.50982 1 0.568945 
5877 1 -0.243278 2.15096 0.400583 5 6.62093 
6614 2 -0.243033 0.0884169 1.89097 1 0.914472 
6617 2 1.0478 2.09639 2.50908 1 0.566433 
6656 2 2.06695 2.07408 0.155618 5 1.32596 
6945 2 2.24773 0.0697382 1.60626 1 0.242403 
6989 2 4.66474 0.0325297 1.10997 1 0.0253309 
6990 2 3.5616 2.08138 2.07216 1 0.0694978 
6993 2 6.00806 2.05372 1.58354 1 0.00700301 
7364 2 7.09575 0.0117142 0.634593 1 0.00218237 
7368 2 8.72241 0.00831771 2.51521 1 0.000421599 
7408 2 9.53591 0.00695062 0.16333 1 0.000167307 
7409 2 8.44987 2.04226 1.10664 1 0.00051908 
7412 2 10.8931 2.03916 0.634514 1 3.44075e-05 
7793 2 11.1652 0.00675511 2.04479 1 4.39206e-05 
7794 2 12.5222 2.03863 2.51569 1 7.16922e-06 
7838 2 13.337 2.03837 0.163698 1 3.16873e-06 
7796 2 13.6088 0.00605484 1.57453 1 4.62764e-06 
7840 2 14.9664 2.03813 2.04515 1 7.8977e-07 
8221 2 16.0528 0.00564585 1.10426 1 5.13728e-07 
8222 2 17.4107 2.03774 1.57476 1 1.14384e-07 
8224 2 18.4971 0.00528445 0.633965 1 5.79104e-08 
8268 2 19.855 2.03736 1.1044 1 1.58569e-08 
8608 2 20.1266 0.00504814 2.51553 1 2.64511e-08 
8650 2 20.9413 0.00491775 0.163657 1 9.47927e-09 
8651 2 22.2993 2.03696 0.634087 1 6.27299e-09 
8652 2 22.5709 0.00463666 2.04523 1 8.59384e-09 
8656 2 23.9288 2.03667 2.51566 1 7.32451e-09 
8696 2 24.7436 2.0365 0.163784 1 6.31693e-09 
9036 2 25.0152 0.00417383 1.57493 1 1.20476e-08 
9080 2 27.4595 0.00364811 1.10468 1 2.24244e-09 
9081 2 26.3731 2.03617 2.04538 1 6.29382e-09 
87 4 -67.324 4.07478 1.5764 5 30.976 
281 4 -64.8799 4.07478 2.04678 1 1e-15 
283 4 -63.2504 4.07478 0.165259 1 1.00104e-15 
284 4 -62.4357 4.07478 2.51716 1 1.40008e-15 
561 4 -60.8063 4.07478 0.635638 1 1.09936e-15 
606 4 -58.3621 4.07478 1.10602 1 2.1371e-08 
951 1 -55.9179 4.07483 1.57631 1 3.58533e-09 
996 1 -53.4737 4.07493 2.04657 1 1.22012e-09 
1375 1 -51.0295 4.075 2.51682 1 1.36509e-09 
1378 1 -51.8442 4.07498 0.164957 1 3.97563e-09 
1380 1 -49.4001 4.07503 0.635216 1 2.75817e-09 
1806 1 -46.9559 4.07507 1.10545 1 1.23367e-09 
1808 1 -44.5117 4.07509 1.57569 1 1.09599e-08 
2234 1 -42.0675 4.07503 2.04597 1 7.99003e-09 
2236 1 -40.438 4.07495 0.164417 1 2.10132e-09 
2237 1 -39.6233 4.07491 2.51629 1 2.14406e-09 
2619 1 -37.9938 4.07481 0.634744 1 3.28948e-09 
2664 1 -35.5496 4.07468 1.10506 1 4.50447e-10 
3047 1 -33.1054 4.07455 1.57537 1 7.65619e-09 
3092 1 -30.6612 4.0744 2.04573 1 1.70413e-09 
3475 1 -28.2169 4.07426 2.51609 1 2.60135e-09 
3478 1 -29.0317 4.07431 0.16421 1 4.60882e-09 
3480 1 -26.5874 4.07416 0.634544 1 2.68388e-09 
3906 1 -24.1432 4.07401 1.10489 1 4.18727e-09 
3908 1 -21.6989 4.07386 1.57524 1 1.56945e-08 
4334 1 -19.2546 4.0737 2.04563 1 1.35615e-07 
4336 1 -17.625 4.07357 0.164123 1 3.97129e-07 
4337 1 -16.8102 4.07349 2.51606 1 1.11163e-06 
4719 1 -15.1806 4.07335 0.634567 1 2.77974e-06 
4764 1 -12.7359 4.07335 1.10494 1 2.03393e-05 
5144 1 -10.2909 4.07437 1.57533 1 0.000174516 
5189 1 -7.84488 4.07858 2.04686 1 0.00162101 
5541 1 -5.39201 4.08809 2.52172 1 0.0136458 
5544 1 -6.21581 4.07879 0.160444 1 0.0156803 
5546 1 -3.79002 4.11378 0.625126 1 0.253096 
5876 1 -1.42551 4.1498 1.09795 5 4.92742 
6657 2 0.939254 4.14948 1.09726 5 4.92928 
6660 2 3.30387 4.11269 0.624268 1 0.251104 
6991 2 4.90596 4.08683 2.52084 1 0.013599 
7035 2 5.72968 4.07731 0.159573 1 0.0155634 
7037 2 7.35879 4.07688 2.04599 1 0.00161093 
7410 2 9.80483 4.07231 1.57446 1 0.000172356 
7456 2 12.2498 4.07093 1.10409 1 1.98883e-05 
7839 2 14.6945 4.0704 0.63384 1 2.63462e-06 
7844 2 16.3241 4.07015 2.51544 1 1.02973e-06 
7884 2 17.139 4.07003 0.163552 1 3.75243e-07 
8269 2 18.7685 4.0698 2.04512 1 1.27403e-07 
8272 2 21.2129 4.06942 1.57481 1 2.48679e-08 
8697 2 23.6572 4.06898 1.10451 1 8.29129e-09 
8700 2 26.1015 4.0685 0.634225 1 1.05466e-08 
9082 2 27.731 4.06813 2.51582 1 2.47009e-09 
9126 2 28.5458 4.06795 0.163965 1 1.88465e-09 
246 4 -66.2377 6.10705 2.51716 5 12.3904 
249 4 -67.0525 6.10705 0.165259 5 24.7808 
251 4 -64.6083 6.10705 0.635638 1 8.99361e-16 
560 4 -62.1641 6.10705 1.10602 1 1.00012e-15 
562 4 -59.72 6.10705 1.5764 1 1.80925e-09 
950 1 -57.2758 6.10707 2.04674 1 1.18819e-08 
952 1 -55.6463 6.10711 0.165153 1 3.83854e-09 
953 1 -54.8316 6.10715 2.51702 1 3.08353e-09 
1331 1 -53.2021 6.10721 0.635409 1 1.6377e-09 
1376 1 -50.7579 6.10727 1.10566 1 2.10954e-09 
1759 1 -48.3138 6.10732 1.57592 1 2.2474e-09 
1804 1 -45.8696 6.10736 2.04615 1 5.81434e-09 
2187 1 -43.4254 6.10735 2.5164 1 1.52747e-08 
2190 1 -44.2401 6.10736 0.164536 1 1.34605e-08 
2192 1 -41.7959 6.10729 0.634826 1 7.04318e-09 
2618 1 -39.3517 6.10716 1.10514 1 4.26065e-09 
2620 1 -36.9075 6.10702 1.57547 1 7.66593e-10 
3046 1 -34.4633 6.10689 2.04579 1 1.9316e-09 
3048 1 -32.8338 6.10681 0.164228 1 5.13284e-09 
3049 1 -32.0191 6.10676 2.51612 1 5.39389e-09 
3431 1 -30.3896 6.10666 0.634596 1 3.76045e-09 
3476 1 -27.9453 6.10651 1.10495 1 2.77384e-09 
3859 1 -25.5011 6.10638 1.57529 1 3.99803e-09 
3904 1 -23.0568 6.10622 2.04563 1 3.52933e-09 
4287 1 -20.6126 6.10607 2.51598 1 2.9972e-08 
4290 1 -21.4273 6.10612 0.164086 1 1.67372e-08 
4292 1 -18.9831 6.10595 0.634475 1 7.05567e-08 
4718 1 -16.5389 6.10574 1.1049 1 5.16212e-07 
4720 1 -14.0949 6.10558 1.57531 1 4.83026e-06 
5143 1 -11.6513 6.10582 2.04564 1 4.50028e-05 
5145 1 -10.022 6.10579 0.164197 1 0.000168877 
5146 1 -9.20853 6.10704 2.51607 1 0.000425595 
5497 1 -7.5819 6.11021 0.635487 1 0.00219599 
5542 1 -5.15094 6.13065 1.11094 1 0.0254572 
5834 1 -2.73392 6.16726 1.60733 1 0.243706 
6402 2 -0.243033 6.18524 1.89097 1 0.914458 
6658 2 2.24773 6.16656 1.60626 1 0.242404 
6704 2 4.66474 6.12935 1.10997 1 0.0253303 
7036 2 7.09575 6.10853 0.634592 1 0.00218234 
7041 2 8.72241 6.10514 2.51521 1 0.00042161 
7081 2 9.53591 6.10377 0.16333 1 0.00016732 
7457 2 11.1652 6.10357 2.04479 1 4.39228e-05 
7460 2 13.6088 6.10287 1.57453 1 4.62997e-06 
7885 2 16.0528 6.10246 1.10426 1 5.17541e-07 
7888 2 18.4971 6.1021 0.633965 1 5.88443e-08 
8270 2 20.1266 6.10187 2.51553 1 2.68532e-08 
8314 2 20.9413 6.10174 0.163657 1 9.83359e-09 
8316 2 22.5709 6.10145 2.04523 1 8.59292e-09 
8698 2 25.0152 6.10099 1.57493 1 1.2047e-08 
8744 2 27.4595 6.10047 1.10468 1 2.27258e-09 
247 4 -65.9662 8.13933 1.10602 5 6.1952 
514 4 -63.522 8.13933 1.5764 1 8.99648e-16 
558 4 -61.0778 8.13933 2.04678 1 7.00007e-16 
903 4 -58.6337 8.13933 2.51716 1 1.20013e-08 
906 4 -59.4484 8.13933 0.165259 1 2.61534e-09 
908 1 -57.0042 8.13935 0.635595 1 9.76446e-09 
1330 1 -54.56 8.13943 1.10587 1 4.04053e-09 
1332 1 -52.1158 8.13952 1.5761 1 3.9044e-09 
1758 1 -49.6716 8.13958 2.04637 1 2.0076e-09 
1760 1 -48.0422 8.1396 0.16476 1 2.6832e-09 
1761 1 -47.2274 8.13961 2.51661 1 9.87648e-10 
2144 1 -45.598 8.13964 0.634985 1 1.02363e-08 
2188 1 -43.1538 8.13961 1.10525 1 1.03905e-08 
2571 1 -40.7096 8.13951 1.57555 1 3.34754e-09 
2616 1 -38.2654 8.13937 2.04589 1 1.52267e-09 
2999 1 -35.8212 8.13924 2.51621 1 1.62712e-09 
3002 1 -36.6359 8.13928 0.164324 1 6.53098e-10 
3004 1 -34.1917 8.13915 0.634645 1 2.46016e-09 
3430 1 -31.7475 8.13902 1.10498 1 2.26401e-09 
3432 1 -29.3033 8.13886 1.57534 1 3.86852e-09 
3858 1 -26.859 8.13872 2.04569 1 2.17278e-09 
3860 1 -25.2295 8.13864 0.164138 1 2.84324e-09 
3861 1 -24.4148 8.13858 2.51603 1 1.56537e-09 
4244 1 -22.7852 8.13848 0.634494 1 2.39848e-09 
4288 1 -20.341 8.13833 1.10487 1 2.07213e-08 
4671 1 -17.8967 8.13816 1.57532 1 1.32508e-07 
4716 1 -15.4525 8.13797 2.04586 1 8.41471e-07 
5096 1 -13.0082 8.13793 2.51653 1 7.33857e-06 
5099 1 -13.8231 8.13784 0.164497 1 3.33821e-06 
5101 1 -11.3792 8.13819 0.635378 1 3.49924e-05 
5496 1 -8.93598 8.14096 1.10751 1 0.000522523 
5498 1 -6.4942 8.15205 1.58445 1 0.00704053 
5833 1 -4.04771 8.17924 2.07316 1 0.0697947 
5835 1 -2.5535 8.17172 0.15662 5 1.33543 
5836 1 -1.53365 8.19354 2.50982 1 0.568948 
6041 1 -0.243277 8.24778 0.400584 5 6.62093 
6405 2 1.0478 8.19321 2.50908 1 0.566432 
6443 2 2.06695 8.1709 0.155618 5 1.32596 
6705 2 3.5616 8.1782 2.07216 1 0.0694976 
6708 2 6.00806 8.15054 1.58354 1 0.00700265 
7082 2 8.44987 8.13908 1.10664 1 0.000519002 
7085 2 10.8931 8.13598 0.634514 1 3.4388e-05 
7458 2 12.5222 8.13544 2.51569 1 7.15581e-06 
7502 2 13.337 8.13519 0.163697 1 3.16604e-06 
7504 2 14.9664 8.13495 2.04515 1 7.87573e-07 
7886 2 17.4107 8.13456 1.57476 1 1.14018e-07 
7931 2 19.855 8.13418 1.1044 1 1.59952e-08 
8315 2 22.2993 8.13378 0.634087 1 6.41858e-09 
8320 2 23.9288 8.13349 2.51566 1 7.23316e-09 
8359 2 24.7436 8.13332 0.163784 1 6.51928e-09 
8745 2 26.3731 8.13298 2.04538 1 6.27875e-09 
235 4 -67.324 10.1716 1.5764 5 30.976 
478 4 -66.2377 12.2039 2.51716 5 12.3904 
481 4 -67.0525 12.2039 0.165259 5 24.7808 
483 4 -64.6083 12.2039 0.635638 1 8.99361e-16 
513 4 -64.8799 10.1716 2.04678 1 7.00008e-16 
515 4 -63.2504 10.1716 0.165259 1 7.01049e-16 
516 4 -62.4357 10.1716 2.51716 1 1.10009e-15 
862 4 -62.1641 12.2039 1.10602 1 1.00012e-15 
863 4 -60.8063 10.1716 0.635638 1 7.99369e-16 
864 4 -59.72 12.2039 1.5764 1 1.79072e-09 
904 4 -58.3621 10.1716 1.10602 1 2.12843e-08 
1284 1 -57.2758 12.2039 2.04674 1 1.18041e-08 
1285 1 -55.9179 10.1717 1.57631 1 3.58594e-09 
1286 1 -55.6463 12.2039 0.165153 1 3.88942e-09 
1287 1 -54.8316 12.204 2.51702 1 3.14109e-09 
1328 1 -53.4737 10.1717 2.04657 1 1.2215e-09 
1676 1 -53.2021 12.204 0.63541 1 1.63922e-09 
1712 1 -51.0295 10.1718 2.51682 1 1.40091e-09 
1713 1 -50.7579 12.2041 1.10566 1 2.1187e-09 
1715 1 -51.8442 10.1718 0.164957 1 4.09007e-09 
1717 1 -49.4001 10.1718 0.635216 1 2.73565e-09 
2102 1 -48.3138 12.2041 1.57592 1 2.31415e-09 
2141 1 -45.8696 12.2042 2.04615 1 5.71061e-09 
2143 1 -46.9559 10.1719 1.10545 1 1.18019e-09 
2145 1 -44.5117 10.1719 1.57569 1 1.0891e-08 
2527 1 -43.4254 12.2042 2.5164 1 1.51299e-08 
2530 1 -44.2401 12.2042 0.164536 1 1.34268e-08 
2532 1 -41.7959 12.2041 0.634826 1 7.2801e-09 
2570 1 -42.0675 10.1718 2.04597 1 8.23245e-09 
2572 1 -40.438 10.1718 0.164417 1 2.13153e-09 
2573 1 -39.6233 10.1717 2.51629 1 2.2177e-09 
2958 1 -39.3517 12.204 1.10514 1 4.22039e-09 
2959 1 -37.9938 10.1716 0.634744 1 3.06233e-09 
2960 1 -36.9075 12.2038 1.57547 1 8.11408e-10 
3000 1 -35.5496 10.1715 1.10506 1 5.0243e-10 
3384 1 -34.4633 12.2037 2.04579 1 2.06609e-09 
3385 1 -33.1054 10.1714 1.57537 1 7.91604e-09 
3386 1 -32.8338 12.2036 0.164229 1 5.03152e-09 
3387 1 -32.0191 12.2036 2.51612 1 5.27662e-09 
3428 1 -30.6612 10.1712 2.04573 1 1.83987e-09 
3776 1 -30.3896 12.2035 0.634597 1 3.5707e-09 
3812 1 -28.2169 10.1711 2.51609 1 2.61899e-09 
3813 1 -27.9453 12.2033 1.10495 1 3.07525e-09 
3815 1 -29.0317 10.1711 0.164211 1 5.05968e-09 
3817 1 -26.5874 10.171 0.634544 1 2.74723e-09 
4202 1 -25.5011 12.2032 1.57529 1 3.96529e-09 
4241 1 -23.0568 12.203 2.04563 1 3.47086e-09 
4243 1 -24.1432 10.1708 1.10489 1 4.02274e-09 
4245 1 -21.6989 10.1707 1.57524 1 1.57891e-08 
4627 1 -20.6126 12.2029 2.51598 1 2.94758e-08 
4630 1 -21.4273 12.2029 0.164087 1 1.67042e-08 
4632 1 -18.9831 12.2028 0.634476 1 6.9806e-08 
4670 1 -19.2546 10.1705 2.04563 1 1.34927e-07 
4672 1 -17.625 10.1704 0.164123 1 3.95826e-07 
4673 1 -16.8102 10.1703 2.51606 1 1.10869e-06 
5055 1 -16.5389 12.2026 1.1049 1 5.14012e-07 
5056 1 -15.1806 10.1702 0.634568 1 2.77029e-06 
5057 1 -14.0949 12.2024 1.57531 1 4.82965e-06 
5097 1 -12.7359 10.1702 1.10494 1 2.03395e-05 
5450 1 -11.6513 12.2026 2.04564 1 4.49913e-05 
5451 1 -10.2909 10.1712 1.57533 1 0.000174482 
5452 1 -10.022 12.2026 0.164196 1 0.000168859 
5453 1 -9.20853 12.2039 2.51607 1 0.000425584 
5494 1 -7.84488 10.1754 2.04686 1 0.00162089 
5751 1 -7.58191 12.207 0.635487 1 0.00219591 
5787 1 -5.39201 10.1849 2.52172 1 0.0136456 
5788 1 -5.15094 12.2275 1.11094 1 0.025458 
5790 1 -6.21581 10.1756 0.160445 1 0.0156799 
5792 1 -3.79002 10.2106 0.625126 1 0.253098 
6004 1 -2.73392 12.2641 1.60733 1 0.243705 
6040 1 -1.4255 10.2466 1.09795 5 4.92742 
6267 2 -0.243033 12.2821 1.89097 1 0.91446 
6444 2 0.939253 10.2463 1.09726 5 4.92927 
6445 2 2.24773 12.2634 1.60626 1 0.242403 
6447 2 3.30387 10.2095 0.624268 1 0.251107 
6483 2 4.66474 12.2262 1.10997 1 0.0253311 
6706 2 4.90596 10.1836 2.52084 1 0.0135988 
6748 2 5.72968 10.1741 0.159574 1 0.0155633 
6749 2 7.09575 12.2054 0.634593 1 0.00218228 
6750 2 7.35879 10.1737 2.04599 1 0.00161085 
6754 2 8.72241 12.202 2.51521 1 0.000421571 
6786 2 9.53591 12.2006 0.163331 1 0.000167315 
7083 2 9.80483 10.1691 1.57447 1 0.000172299 
7125 2 12.2498 10.1677 1.10409 1 1.98801e-05 
7126 2 11.1652 12.2004 2.04479 1 4.39198e-05 
7129 2 13.6088 12.1997 1.57453 1 4.63209e-06 
7503 2 14.6945 10.1672 0.633841 1 2.63417e-06 
7508 2 16.3241 10.167 2.51544 1 1.02961e-06 
7544 2 17.139 10.1669 0.163551 1 3.75831e-07 
7545 2 16.0528 12.1993 1.10426 1 5.14301e-07 
7548 2 18.4971 12.1989 0.633965 1 5.7841e-08 
7932 2 18.7685 10.1666 2.04512 1 1.27198e-07 
7933 2 20.1266 12.1987 2.51553 1 2.68895e-08 
7971 2 20.9413 12.1986 0.163657 1 9.62444e-09 
7935 2 21.2129 10.1662 1.57481 1 2.52355e-08 
7973 2 22.5709 12.1983 2.04523 1 8.64178e-09 
8360 2 23.6572 10.1658 1.10451 1 8.40348e-09 
8361 2 25.0152 12.1978 1.57493 1 1.21261e-08 
8363 2 26.1015 10.1653 0.634225 1 1.03176e-08 
8399 2 27.4595 12.1973 1.10468 1 2.32065e-09 
8746 2 27.731 10.1649 2.51582 1 2.40663e-09 
8788 2 28.5458 10.1648 0.163966 1 1.78787e-09 
479 4 -65.9662 14.2361 1.10602 5 6.1952 
825 4 -63.522 14.2361 1.5764 1 1.19964e-15 
860 4 -61.0778 14.2361 2.04678 1 1e-15 
1245 4 -58.6337 14.2361 2.51716 1 1.20054e-08 
1248 4 -59.4484 14.2361 0.165259 1 2.59762e-09 
1250 1 -57.0042 14.2362 0.635595 1 9.85576e-09 
1675 1 -54.56 14.2362 1.10587 1 4.20674e-09 
1677 1 -52.1158 14.2363 1.5761 1 3.90132e-09 
2101 1 -49.6716 14.2364 2.04637 1 2.07986e-09 
2103 1 -48.0422 14.2364 0.164761 1 2.76311e-09 
2104 1 -47.2274 14.2364 2.51661 1 8.8268e-10 
2495 1 -45.598 14.2365 0.634986 1 9.90538e-09 
2528 1 -43.1538 14.2364 1.10525 1 1.04396e-08 
2921 1 -40.7096 14.2363 1.57555 1 3.20604e-09 
2956 1 -38.2654 14.2362 2.04589 1 1.44615e-09 
3345 1 -35.8212 14.2361 2.51621 1 1.72679e-09 
3348 1 -36.6359 14.2361 0.164324 1 6.54855e-10 
3350 1 -34.1917 14.236 0.634645 1 2.53176e-09 
3775 1 -31.7475 14.2358 1.10498 1 2.4821e-09 
3777 1 -29.3033 14.2357 1.57534 1 3.84868e-09 
4201 1 -26.859 14.2355 2.04569 1 2.01398e-09 
4203 1 -25.2295 14.2355 0.164137 1 2.91137e-09 
4204 1 -24.4148 14.2354 2.51603 1 1.64228e-09 
4595 1 -22.7852 14.2353 0.634495 1 2.5103e-09 
4628 1 -20.341 14.2351 1.10487 1 2.05526e-08 
5018 1 -17.8967 14.235 1.57532 1 1.31522e-07 
5053 1 -15.4525 14.2348 2.04586 1 8.4005e-07 
5411 1 -13.0082 14.2347 2.51653 1 7.34568e-06 
5414 1 -13.8231 14.2347 0.164496 1 3.33312e-06 
5416 1 -11.3792 14.235 0.635378 1 3.49888e-05 
5750 1 -8.93598 14.2378 1.10751 1 0.000522602 
5752 1 -6.49421 14.2489 1.58445 1 0.00704078 
6003 1 -4.04771 14.2761 2.07316 1 0.0697946 
6005 1 -2.5535 14.2685 0.156621 5 1.33543 
6006 1 -1.53365 14.2904 2.50982 1 0.56894 
6135 1 -0.243279 14.3446 0.400583 5 6.62091 
6270 2 1.0478 14.29 2.50908 1 0.566439 
6297 2 2.06695 14.2677 0.155619 5 1.32596 
6484 2 3.5616 14.275 2.07216 1 0.069497 
6487 2 6.00806 14.2474 1.58354 1 0.0070029 
6787 2 8.44987 14.2359 1.10664 1 0.000519095 
6790 2 10.8931 14.2328 0.634514 1 3.43971e-05 
7127 2 12.5222 14.2323 2.51569 1 7.16055e-06 
7161 2 13.337 14.232 0.163697 1 3.16681e-06 
7163 2 14.9664 14.2318 2.04515 1 7.88123e-07 
7546 2 17.4107 14.2314 1.57476 1 1.13477e-07 
7580 2 19.855 14.231 1.1044 1 1.59729e-08 
7972 2 22.2993 14.2306 0.634087 1 6.11772e-09 
7977 2 23.9288 14.2303 2.51566 1 7.2919e-09 
8005 2 24.7436 14.2301 0.163784 1 6.57917e-09 
8400 2 26.3731 14.2298 2.04538 1 6.38709e-09 
467 4 -67.324 16.2684 1.5764 5 30.976 
824 4 -64.8799 16.2684 2.04678 1 7.00001e-16 
826 4 -63.2504 16.2684 0.165259 1 7.01041e-16 
827 4 -62.4357 16.2684 2.51716 1 1.10008e-15 
1217 4 -60.8063 16.2684 0.635638 1 7.99361e-16 
1246 4 -58.3621 16.2684 1.10602 1 2.14232e-08 
1642 1 -55.9179 16.2685 1.57631 1 3.45593e-09 
1673 1 -53.4737 16.2686 2.04657 1 1.23363e-09 
2066 1 -51.0295 16.2686 2.51682 1 1.3413e-09 
2069 1 -51.8442 16.2686 0.164957 1 4.03451e-09 
2071 1 -49.4001 16.2687 0.635216 1 2.81056e-09 
2494 1 -46.9559 16.2687 1.10545 1 1.22015e-09 
2496 1 -44.5117 16.2687 1.57569 1 1.09053e-08 
2920 1 -42.0675 16.2687 2.04597 1 7.91955e-09 
2922 1 -40.438 16.2686 0.164417 1 2.1637e-09 
2923 1 -39.6233 16.2685 2.51629 1 2.19205e-09 
3317 1 -37.9938 16.2684 0.634744 1 3.31747e-09 
3346 1 -35.5496 16.2683 1.10506 1 4.25494e-10 
3742 1 -33.1054 16.2682 1.57537 1 7.59401e-09 
3773 1 -30.6612 16.268 2.04573 1 1.70026e-09 
4166 1 -28.2169 16.2679 2.51609 1 2.41896e-09 
4169 1 -29.0317 16.2679 0.16421 1 4.45938e-09 
4171 1 -26.5874 16.2678 0.634544 1 2.6912e-09 
4594 1 -24.1432 16.2677 1.10489 1 4.25607e-09 
4596 1 -21.6989 16.2675 1.57524 1 1.60126e-08 
5017 1 -19.2546 16.2673 2.04563 1 1.35542e-07 
5019 1 -17.625 16.2672 0.164123 1 3.9603e-07 
5020 1 -16.8102 16.2671 2.51606 1 1.11099e-06 
5383 1 -15.1806 16.267 0.634567 1 2.77358e-06 
5412 1 -12.7359 16.267 1.10494 1 2.03285e-05 
5717 1 -10.2909 16.268 1.57533 1 0.000174492 
5748 1 -7.84488 16.2722 2.04686 1 0.00162104 
5968 1 -5.39201 16.2817 2.52172 1 0.0136458 
5971 1 -6.21581 16.2724 0.160445 1 0.0156798 
5973 1 -3.79002 16.3074 0.625126 1 0.253099 
6134 1 -1.4255 16.3434 1.09795 5 4.92742 
6298 2 0.939253 16.3431 1.09726 5 4.92929 
6301 2 3.30387 16.3063 0.624268 1 0.251106 
6485 2 4.90596 16.2805 2.52084 1 0.013599 
6515 2 5.72968 16.2709 0.159573 1 0.0155628 
6517 2 7.35879 16.2705 2.04599 1 0.00161098 
6788 2 9.80483 16.2659 1.57447 1 0.000172315 
6818 2 12.2498 16.2646 1.10409 1 1.98868e-05 
7162 2 14.6945 16.264 0.63384 1 2.63292e-06 
7167 2 16.3241 16.2638 2.51544 1 1.02905e-06 
7191 2 17.139 16.2637 0.163552 1 3.73692e-07 
7581 2 18.7685 16.2634 2.04512 1 1.27714e-07 
7584 2 21.2129 16.2631 1.57481 1 2.50415e-08 
8006 2 23.6572 16.2626 1.10451 1 8.15379e-09 
8009 2 26.1015 16.2621 0.634225 1 1.07069e-08 
8401 2 27.731 16.2618 2.51582 1 2.48356e-09 
8431 2 28.5458 16.2616 0.163966 1 1.81239e-09 
794 4 -66.2377 18.3007 2.51716 5 12.3904 
797 4 -67.0525 18.3007 0.165259 5 24.7808 
799 4 -64.6083 18.3007 0.635638 1 5.99361e-16 
1216 4 -62.1641 18.3007 1.10602 1 7.0012e-16 
1218 4 -59.72 18.3007 1.5764 1 1.79211e-09 
1641 1 -57.2758 18.3007 2.04674 1 1.21089e-08 
1643 1 -55.6463 18.3008 0.165153 1 3.75442e-09 
1644 1 -54.8316 18.3008 2.51702 1 2.99746e-09 
2042 1 -53.2021 18.3008 0.635409 1 1.61862e-09 
2067 1 -50.7579 18.3009 1.10566 1 2.11072e-09 
2465 1 -48.3138 18.301 1.57592 1 2.14317e-09 
2492 1 -45.8696 18.301 2.04615 1 5.78729e-09 
2889 1 -43.4254 18.301 2.5164 1 1.52206e-08 
2892 1 -44.2401 18.301 0.164536 1 1.35958e-08 
2894 1 -41.7959 18.3009 0.634826 1 7.18324e-09 
3316 1 -39.3517 18.3008 1.10514 1 4.27945e-09 
3318 1 -36.9075 18.3007 1.57547 1 8.27728e-10 
3741 1 -34.4633 18.3005 2.04579 1 1.94961e-09 
3743 1 -32.8338 18.3004 0.164228 1 5.31191e-09 
3744 1 -32.0191 18.3004 2.51612 1 5.5506e-09 
4142 1 -30.3896 18.3003 0.634597 1 3.88963e-09 
4167 1 -27.9453 18.3001 1.10495 1 2.92593e-09 
4565 1 -25.5011 18.3 1.57529 1 4.19511e-09 
4592 1 -23.0568 18.2999 2.04563 1 3.6669e-09 
4986 1 -20.6126 18.2997 2.51598 1 3.03984e-08 
4989 1 -21.4273 18.2998 0.164086 1 1.6983e-08 
4991 1 -18.9831 18.2996 0.634476 1 6.98448e-08 
5382 1 -16.5389 18.2994 1.1049 1 5.14256e-07 
5384 1 -14.0949 18.2992 1.57531 1 4.82693e-06 
5716 1 -11.6513 18.2995 2.04564 1 4.49875e-05 
5718 1 -10.022 18.2994 0.164197 1 0.000168899 
5719 1 -9.20853 18.3007 2.51607 1 0.000425516 
5944 1 -7.58191 18.3039 0.635487 1 0.0021959 
5969 1 -5.15094 18.3243 1.11094 1 0.0254594 
6110 1 -2.73392 18.3609 1.60733 1 0.243705 
6196 2 -0.243033 18.3789 1.89097 1 0.914477 
6299 2 2.24773 18.3602 1.60626 1 0.242404 
6325 2 4.66474 18.323 1.10997 1 0.0253321 
6516 2 7.09575 18.3022 0.634593 1 0.00218223 
6521 2 8.72241 18.2988 2.51521 1 0.000421539 
6541 2 9.53591 18.2974 0.163331 1 0.000167326 
6819 2 11.1652 18.2972 2.04479 1 4.39075e-05 
6822 2 13.6088 18.2965 1.57453 1 4.62635e-06 
7192 2 16.0528 18.2961 1.10426 1 5.13504e-07 
7195 2 18.4971 18.2957 0.633965 1 5.82769e-08 
7582 2 20.1266 18.2955 2.51553 1 2.67057e-08 
7608 2 20.9413 18.2954 0.163658 1 9.8526e-09 
7610 2 22.5709 18.2951 2.04523 1 8.78896e-09 
8007 2 25.0152 18.2946 1.57493 1 1.23436e-08 
8033 2 27.4595 18.2941 1.10468 1 2.24257e-09 
783 4 -67.324 22.3652 1.5764 5 30.976 
795 4 -65.9662 20.333 1.10602 5 6.1952 
1190 4 -64.8799 22.3652 2.04678 1 1e-15 
1191 4 -63.522 20.333 1.5764 1 1.19964e-15 
1192 4 -63.2504 22.3652 0.165259 1 1.00104e-15 
1193 4 -62.4357 22.3652 2.51716 1 1.40008e-15 
1214 4 -61.0778 20.333 2.04678 1 1e-15 
1598 4 -60.8063 22.3652 0.635638 1 1.09936e-15 
1614 4 -58.6337 20.333 2.51716 1 1.1987e-08 
1615 4 -58.3621 22.3652 1.10602 1 2.13501e-08 
1617 4 -59.4484 20.333 0.165259 1 2.59465e-09 
1619 1 -57.0042 20.333 0.635595 1 9.97692e-09 
2020 1 -55.9179 22.3653 1.57631 1 3.45723e-09 
2039 1 -53.4737 22.3654 2.04657 1 1.14517e-09 
2041 1 -54.56 20.3331 1.10587 1 4.04121e-09 
2043 1 -52.1158 20.3332 1.5761 1 3.8147e-09 
2441 1 -51.0295 22.3655 2.51682 1 1.33967e-09 
2444 1 -51.8442 22.3654 0.164957 1 3.89966e-09 
2446 1 -49.4001 22.3655 0.635216 1 2.75585e-09 
2464 1 -49.6716 20.3332 2.04637 1 2.03732e-09 
2466 1 -48.0422 20.3332 0.16476 1 2.71271e-09 
2467 1 -47.2274 20.3333 2.51661 1 9.18031e-10 
2868 1 -46.9559 22.3655 1.10545 1 1.18951e-09 
2869 1 -45.598 20.3333 0.634986 1 1.02248e-08 
2870 1 -44.5117 22.3655 1.57569 1 1.10624e-08 
2890 1 -43.1538 20.3332 1.10525 1 1.06228e-08 
3290 1 -42.0675 22.3655 2.04597 1 8.077e-09 
3291 1 -40.7096 20.3331 1.57555 1 3.16811e-09 
3292 1 -40.438 22.3654 0.164417 1 2.08329e-09 
3293 1 -39.6233 22.3654 2.51629 1 2.21185e-09 
3314 1 -38.2654 20.333 2.04589 1 1.48548e-09 
3698 1 -37.9938 22.3653 0.634743 1 3.18231e-09 
3714 1 -35.8212 20.3329 2.51621 1 1.64018e-09 
3715 1 -35.5496 22.3651 1.10506 1 4.90232e-10 
3717 1 -36.6359 20.3329 0.164323 1 6.18703e-10 
3719 1 -34.1917 20.3328 0.634644 1 2.45258e-09 
4120 1 -33.1054 22.365 1.57537 1 7.61407e-09 
4139 1 -30.6612 22.3649 2.04573 1 1.76575e-09 
4141 1 -31.7475 20.3327 1.10498 1 2.39544e-09 
4143 1 -29.3033 20.3325 1.57534 1 4.02792e-09 
4541 1 -28.2169 22.3647 2.51609 1 2.60811e-09 
4544 1 -29.0317 22.3648 0.164211 1 4.85849e-09 
4546 1 -26.5874 22.3646 0.634544 1 2.52721e-09 
4564 1 -26.859 20.3324 2.04569 1 2.07342e-09 
4566 1 -25.2295 20.3323 0.164138 1 2.95179e-09 
4567 1 -24.4148 20.3322 2.51603 1 1.5947e-09 
4965 1 -24.1432 22.3645 1.10489 1 4.03328e-09 
4966 1 -22.7852 20.3321 0.634494 1 2.32756e-09 
4967 1 -21.6989 22.3643 1.57524 1 1.57104e-08 
4987 1 -20.341 20.332 1.10487 1 2.03313e-08 
5356 1 -19.2546 22.3642 2.04563 1 1.35122e-07 
5357 1 -17.8967 20.3318 1.57532 1 1.31957e-07 
5358 1 -17.625 22.364 0.164123 1 3.96914e-07 
5359 1 -16.8102 22.3639 2.51606 1 1.10886e-06 
5380 1 -15.4525 20.3316 2.04586 1 8.4243e-07 
5673 1 -15.1806 22.3638 0.634567 1 2.77733e-06 
5689 1 -13.0082 20.3316 2.51653 1 7.34698e-06 
5690 1 -12.7359 22.3638 1.10493 1 2.03428e-05 
5692 1 -13.8231 20.3315 0.164497 1 3.33594e-06 
5694 1 -11.3792 20.3318 0.635378 1 3.49975e-05 
5922 1 -10.2909 22.3648 1.57533 1 0.000174526 
5941 1 -7.84488 22.369 2.04686 1 0.00162102 
5943 1 -8.93598 20.3346 1.10751 1 0.000522616 
5945 1 -6.49421 20.3457 1.58445 1 0.00704106 
6086 1 -5.39201 22.3785 2.52172 1 0.0136457 
6089 1 -6.21581 22.3692 0.160445 1 0.0156801 
6091 1 -3.79002 22.4042 0.625127 1 0.253095 
6109 1 -4.04771 20.3729 2.07316 1 0.0697959 
6111 1 -2.5535 20.3654 0.156621 5 1.33544 
6112 1 -1.53365 20.3872 2.50982 1 0.568949 
6170 1 -1.42551 22.4403 1.09795 5 4.92742 
6171 1 -0.243277 20.4414 0.400582 5 6.62092 
6199 2 1.0478 20.3868 2.50908 1 0.566428 
6214 2 2.06695 20.3645 0.155619 5 1.32596 
6215 2 0.939254 22.4399 1.09726 5 4.92927 
6218 2 3.30387 22.4031 0.624268 1 0.251103 
6326 2 3.5616 20.3718 2.07216 1 0.0694977 
6327 2 4.90596 22.3773 2.52084 1 0.0135989 
6345 2 5.72968 22.3678 0.159573 1 0.0155634 
6329 2 6.00806 20.3442 1.58354 1 0.00700303 
6347 2 7.35879 22.3673 2.04599 1 0.00161096 
6542 2 8.44987 20.3327 1.10664 1 0.000519074 
6543 2 9.80483 22.3628 1.57447 1 0.000172359 
6545 2 10.8931 20.3296 0.634514 1 3.44034e-05 
6561 2 12.2498 22.3614 1.10409 1 1.98799e-05 
6820 2 12.5222 20.3291 2.51569 1 7.16506e-06 
6842 2 13.337 20.3288 0.163697 1 3.1639e-06 
6843 2 14.6945 22.3609 0.63384 1 2.63621e-06 
6844 2 14.9664 20.3286 2.04515 1 7.92138e-07 
6848 2 16.3241 22.3606 2.51544 1 1.03219e-06 
6860 2 17.139 22.3605 0.163552 1 3.74648e-07 
7193 2 17.4107 20.3282 1.57476 1 1.13861e-07 
7215 2 19.855 20.3278 1.1044 1 1.57745e-08 
7216 2 18.7685 22.3603 2.04512 1 1.27261e-07 
7219 2 21.2129 22.3599 1.57481 1 2.49763e-08 
7609 2 22.2993 20.3274 0.634087 1 6.11382e-09 
7614 2 23.9288 20.3271 2.51566 1 7.149e-09 
7630 2 24.7436 20.327 0.163784 1 6.7289e-09 
7631 2 23.6572 22.3594 1.10451 1 8.3562e-09 
7634 2 26.1015 22.359 0.634225 1 1.05536e-08 
8034 2 26.3731 20.3266 2.04538 1 6.15326e-09 
8035 2 27.731 22.3586 2.51582 1 2.49251e-09 
8053 2 28.5458 22.3584 0.163966 1 1.70538e-09 
1171 4 -66.2377 24.3975 2.51716 5 12.3904 
1174 4 -67.0525 24.3975 0.165259 5 24.7808 
1176 4 -64.6083 24.3975 0.635638 1 5.99361e-16 
1597 4 -62.1641 24.3975 1.10602 1 7.0012e-16 
1599 4 -59.72 24.3975 1.5764 1 1.79703e-09 
2019 1 -57.2758 24.3975 2.04674 1 1.18672e-08 
2021 1 -55.6463 24.3976 0.165153 1 3.78404e-09 
2022 1 -54.8316 24.3976 2.51702 1 3.13731e-09 
2429 1 -53.2021 24.3977 0.635409 1 1.58356e-09 
2442 1 -50.7579 24.3977 1.10566 1 2.09114e-09 
2851 1 -48.3138 24.3978 1.57592 1 2.30075e-09 
2866 1 -45.8696 24.3978 2.04615 1 5.81465e-09 
3271 1 -43.4254 24.3978 2.5164 1 1.50282e-08 
3274 1 -44.2401 24.3978 0.164536 1 1.35463e-08 
3276 1 -41.7959 24.3977 0.634826 1 7.19908e-09 
3697 1 -39.3517 24.3976 1.10513 1 4.32042e-09 
3699 1 -36.9075 24.3975 1.57547 1 8.2724e-10 
4119 1 -34.4633 24.3973 2.04579 1 1.90447e-09 
4121 1 -32.8338 24.3973 0.164228 1 5.21991e-09 
4122 1 -32.0191 24.3972 2.51612 1 5.4637e-09 
4529 1 -30.3896 24.3971 0.634596 1 3.77724e-09 
4542 1 -27.9453 24.397 1.10495 1 3.29147e-09 
4948 1 -25.5011 24.3968 1.57529 1 4.07047e-09 
4963 1 -23.0568 24.3967 2.04563 1 3.44383e-09 
5337 1 -20.6126 24.3965 2.51598 1 2.91231e-08 
5340 1 -21.4273 24.3966 0.164086 1 1.70158e-08 
5342 1 -18.9831 24.3964 0.634475 1 6.97512e-08 
5672 1 -16.5389 24.3962 1.1049 1 5.15793e-07 
5674 1 -14.0949 24.396 1.57531 1 4.83436e-06 
5921 1 -11.6513 24.3963 2.04564 1 4.50066e-05 
5923 1 -10.022 24.3962 0.164197 1 0.00016887 
5924 1 -9.20853 24.3975 2.51607 1 0.000425651 
6074 1 -7.5819 24.4007 0.635487 1 0.00219592 
6087 1 -5.15094 24.4211 1.11094 1 0.0254569 