ITEM: TIMESTEP
0
ITEM: NUMBER OF ATOMS
23256
ITEM: BOX BOUNDS ss pp pp
-79.6392 119.954
0 31.68
0 40.1342
ITEM: ATOMS id type x y z c_cna c_csd 
57 4 -79.0217 1.75996 2.06392 5 18.5856 
60 4 -76.8606 1.75996 0.829019 1 1.29729e-15 
276 4 -73.4646 1.75996 1.75519 1 6.99736e-16 
659 4 -71.3035 1.75996 0.520295 1 7.72891e-10 
1073 1 -67.9076 1.76 1.44645 1 4.67723e-09 
1072 1 -66.2096 3.74834e-06 1.90953 1 1.44267e-09 
1488 1 -64.5116 1.76002 2.37261 1 1.39879e-09 
1947 1 -65.7465 1.76 0.211546 1 2.95444e-09 
1486 1 -64.0485 2.58761e-05 0.674625 1 6.24447e-09 
1491 1 -62.3505 1.76004 1.1377 1 2.81715e-09 
1900 1 -60.6526 5.71318e-05 1.60077 1 1.81405e-09 
1905 1 -58.9546 1.76007 2.06384 1 1.72936e-09 
1936 1 -58.4915 6.78078e-05 0.365833 1 3.23649e-09 
2323 1 -57.2567 8.48435e-05 2.52689 1 5.15517e-09 
2360 1 -56.7936 1.76009 0.828896 1 4.97104e-09 
2359 1 -55.0956 0.000105413 1.29196 1 4.58427e-09 
2773 1 -51.6996 0.000112047 2.21806 1 3.77982e-09 
2774 1 -53.3976 1.76009 1.75502 1 7.89655e-09 
3646 1 -52.9345 0.000115786 0.0570128 1 2.7458e-09 
2776 1 -51.2365 1.76009 0.520072 1 4.36695e-09 
3187 1 -49.5385 0.000107969 0.983119 1 3.49966e-09 
3192 1 -47.8406 1.76009 1.44616 1 2.00687e-09 
3601 1 -46.1426 7.33988e-05 1.90921 1 7.16783e-09 
3606 1 -44.4446 1.76006 2.37225 1 4.45589e-09 
3637 1 -43.9815 4.16249e-05 0.674268 1 4.74786e-09 
4502 1 -45.6795 1.76006 0.211221 1 2.20578e-09 
4052 1 -42.2836 1.76003 1.13733 1 6.91451e-09 
4467 1 -38.8876 1.75999 2.0634 1 6.50382e-09 
4470 1 -36.7265 1.75995 0.828499 1 1.04933e-08 
4893 1 -33.3303 1.75991 1.75451 1 5.29479e-08 
5339 1 -31.1691 1.75991 0.519608 1 8.07041e-08 
5753 1 -27.7728 1.7599 1.44554 1 5.75384e-07 
6168 1 -24.3769 1.75991 2.37161 1 1.61708e-06 
6627 1 -25.6114 1.7599 0.210482 1 1.14844e-06 
6171 1 -22.2154 1.7599 1.13639 1 3.62964e-06 
6585 1 -18.8213 1.75993 2.06317 1 4.13947e-06 
7040 1 -16.66 1.75995 0.82773 1 1.03255e-05 
7454 1 -13.2711 1.75998 1.75752 1 2.79203e-05 
7453 1 -11.5779 1.00989e-05 2.22405 1 0.000122677 
7456 1 -11.1119 1.76001 0.524088 1 5.2497e-05 
8326 1 -12.8042 2.0076e-06 0.0572343 1 2.3009e-05 
7867 1 -9.42088 3.38512e-05 0.993161 1 0.000270026 
7872 1 -7.72939 1.76003 1.46446 1 0.0010608 
8281 1 -6.03211 3.51069e-05 1.9355 1 0.0018917 
9092 1 -5.58247 1.76006 0.237737 1 0.00341618 
8286 1 -4.32457 1.76006 2.40085 1 0.0018824 
8317 1 -3.89081 4.54974e-05 0.706444 1 0.00581664 
8731 1 -0.38488 4.8783e-05 1.58588 1 0.509668 
8732 1 -2.1848 1.76004 1.15887 1 0.0292345 
9300 1 -0.0399663 1.76 0.000153741 1 0.6709 
10013 2 1.78888 1.76 2.14531 5 7.89346 
10016 2 1.78875 9.95148e-06 0.333508 5 3.491 
10014 2 3.61748 1.76 9.25404e-05 1 0.670709 
10429 2 5.76225 1.75999 1.15877 1 0.0292152 
10464 2 7.90206 1.75997 2.40064 1 0.00188 
10852 2 9.15999 1.75998 0.2375 1 0.00340937 
10887 2 11.3069 1.76 1.46418 1 0.00106071 
11301 2 14.6894 1.76 0.523845 1 5.23682e-05 
11303 2 12.9984 2.29067e-06 0.992899 1 0.000270447 
11304 2 15.1554 1.63547e-06 2.2238 1 0.000123125 
11715 2 16.8487 1.75999 1.75728 1 2.81295e-05 
11717 2 16.3818 3.93369e-06 0.0570096 1 2.31828e-05 
58 4 -78.5586 3.51996 0.365932 5 18.5856 
59 4 -77.3237 3.51996 2.527 1 6.9988e-16 
61 4 -79.0217 5.27996 2.06392 5 18.5856 
64 4 -76.8606 5.27996 0.829019 1 1.29728e-15 
274 4 -75.1626 3.51996 1.29211 1 6.99882e-16 
280 4 -73.4646 5.27996 1.75519 1 6.99726e-16 
1094 4 -73.0015 3.51996 0.057208 1 4.00003e-16 
625 4 -71.7666 3.51996 2.21828 1 2.83784e-10 
660 1 -69.6056 3.51997 0.983368 1 3.00047e-09 
661 4 -71.3035 5.27996 0.520295 1 6.73036e-10 
1075 1 -67.9076 5.27998 1.44645 1 1.76776e-09 
1074 1 -66.2096 3.52 1.90953 1 5.30117e-09 
1489 1 -64.0485 3.52002 0.674628 1 2.26981e-09 
1903 1 -60.6526 3.52005 1.60079 1 3.87258e-09 
1937 1 -58.4915 3.52007 0.365849 1 2.83173e-09 
2326 1 -57.2566 3.52007 2.52691 1 3.66297e-09 
2361 1 -55.0956 3.52007 1.29196 1 3.26626e-09 
2775 1 -51.6996 3.52008 2.21806 1 5.54563e-09 
3647 1 -52.9345 3.52007 0.0570161 1 4.44067e-09 
3190 1 -49.5386 3.52009 0.983129 1 7.39967e-09 
3604 1 -46.1426 3.52007 1.90919 1 3.75406e-09 
3638 1 -43.9816 3.52005 0.674259 1 2.12207e-09 
4053 1 -40.5856 3.52003 1.60036 1 5.88156e-09 
4468 1 -38.4245 3.51999 0.365453 1 7.12503e-09 
4469 1 -37.1895 3.51998 2.52642 1 7.07066e-09 
4474 1 -36.7265 5.27998 0.828484 1 1.08718e-08 
4891 1 -35.0284 3.51996 1.2915 1 1.46015e-08 
4897 1 -33.3303 5.27995 1.75451 1 6.39601e-08 
5305 1 -31.6322 3.51992 2.21751 1 1.59762e-07 
5341 1 -31.1691 5.27992 0.519601 1 8.74368e-08 
5774 1 -32.8673 3.51994 0.0566178 1 2.21918e-08 
5340 1 -29.4709 3.51991 0.982579 1 2.53164e-07 
5754 1 -26.0747 3.51989 1.90852 1 1.13635e-06 
5755 1 -27.7728 5.27987 1.44554 1 6.34082e-07 
6169 1 -23.9132 3.5199 0.673382 1 2.32117e-06 
6172 1 -24.3769 5.27989 2.3716 1 1.64654e-06 
6629 1 -25.6113 5.27988 0.210479 1 1.17059e-06 
6175 1 -22.2154 5.27988 1.13638 1 3.58253e-06 
6583 1 -20.518 3.5199 1.59959 1 4.5576e-06 
6589 1 -18.8213 5.27989 2.06313 1 4.17646e-06 
6617 1 -18.3563 3.51991 0.364085 1 1.07809e-05 
7006 1 -17.1254 3.51992 2.52721 1 4.34417e-06 
7042 1 -16.66 5.27991 0.827724 1 1.03369e-05 
7041 1 -14.9649 3.51995 1.29212 1 9.51721e-06 
7457 1 -13.271 5.27997 1.7575 1 2.78128e-05 
7455 1 -11.5779 3.52 2.22402 1 0.000122852 
8327 1 -12.8042 3.51999 0.0572198 1 2.30187e-05 
7870 1 -9.42087 3.52002 0.99313 1 0.000270347 
8284 1 -6.03211 3.52004 1.93547 1 0.00189334 
8318 1 -3.89077 3.52005 0.706451 1 0.00582073 
8733 1 -0.384864 3.51995 1.58587 1 0.509004 
10009 2 1.78817 5.27993 2.14529 5 7.89324 
10012 2 1.78875 3.51997 0.333486 5 3.49079 
10010 2 3.61751 5.27997 8.64559e-05 1 0.671463 
10015 2 3.96233 3.52001 1.58578 1 0.509662 
10427 2 5.76231 5.27997 1.15872 1 0.0292434 
10430 2 7.46829 3.51997 0.706266 1 0.00581865 
10460 2 7.90208 5.28 2.40062 1 0.00188344 
10850 2 9.16001 5.27998 0.237485 1 0.00341346 
10885 2 9.60962 3.51998 1.93523 1 0.00189126 
10883 2 11.3069 5.27999 1.46416 1 0.00106103 
11297 2 14.6894 5.27998 0.52382 1 5.23851e-05 
11299 2 12.9984 3.52 0.992876 1 0.000269677 
11302 2 15.1554 3.52 2.22378 1 0.000123358 
11712 2 16.8487 5.27998 1.75727 1 2.79585e-05 
11714 2 16.3818 3.51999 0.0569901 1 2.32256e-05 
11716 2 18.5426 3.51998 1.29191 1 9.64757e-06 
62 4 -78.5586 7.03996 0.365932 5 18.5856 
63 4 -77.3237 7.03996 2.527 1 6.9988e-16 
278 4 -75.1626 7.03996 1.29211 1 6.99882e-16 
1098 4 -73.0015 7.03996 0.057208 1 4.00003e-16 
629 4 -71.7666 7.03996 2.21828 1 1.53051e-10 
662 1 -69.6056 7.03996 0.98337 1 1.9162e-09 
1076 1 -66.2096 7.04 1.90953 1 1.88273e-09 
1492 1 -64.5116 5.28001 2.37261 1 3.1346e-09 
1949 1 -65.7465 5.28002 0.211541 1 6.06159e-09 
1493 1 -64.0485 7.04003 0.674629 1 3.52202e-09 
1495 1 -62.3505 5.28003 1.13771 1 1.84771e-09 
1907 1 -60.6526 7.04004 1.60078 1 4.56438e-09 
1909 1 -58.9546 5.28006 2.06385 1 1.71761e-09 
1938 1 -58.4915 7.04006 0.365856 1 7.12188e-09 
2330 1 -57.2566 7.04007 2.5269 1 2.15959e-09 
2362 1 -56.7935 5.28007 0.828911 1 1.81039e-09 
2363 1 -55.0956 7.04008 1.29196 1 8.5225e-10 
2777 1 -53.3976 5.28007 1.755 1 2.37279e-09 
2778 1 -51.6996 7.04009 2.21805 1 1.59276e-09 
3648 1 -52.9345 7.04009 0.0570121 1 2.23979e-09 
2779 1 -51.2366 5.28009 0.520074 1 6.07249e-09 
3194 1 -49.5386 7.0401 0.983105 1 5.92111e-09 
3196 1 -47.8406 5.28008 1.44616 1 2.16387e-09 
3608 1 -46.1427 7.04009 1.90917 1 4.85767e-09 
3610 1 -44.4447 5.28006 2.37222 1 8.93509e-09 
3639 1 -43.9816 7.04006 0.674238 1 6.47581e-09 
4505 1 -45.6796 5.28008 0.211193 1 5.88009e-09 
4054 1 -42.2836 5.28005 1.1373 1 4.28523e-09 
4055 1 -40.5856 7.04003 1.60033 1 3.75763e-09 
4471 1 -38.8876 5.28001 2.06338 1 5.19578e-09 
4472 1 -38.4246 7.04 0.36543 1 1.19864e-08 
4473 1 -37.1895 7.03999 2.52639 1 9.45661e-09 
4895 1 -35.0284 7.03997 1.2915 1 1.72454e-08 
5309 1 -31.6322 7.03992 2.21751 1 1.69522e-07 
5778 1 -32.8673 7.03994 0.0566084 1 2.67242e-08 
5342 1 -29.4709 7.03988 0.982576 1 2.86376e-07 
5756 1 -26.0747 7.03986 1.90852 1 1.16081e-06 
6173 1 -23.9132 7.03987 0.673382 1 2.37247e-06 
6587 1 -20.518 7.03988 1.59958 1 4.48497e-06 
6618 1 -18.3563 7.03989 0.364084 1 1.05858e-05 
7010 1 -17.1254 7.0399 2.5272 1 4.30508e-06 
7043 1 -14.9649 7.03993 1.29211 1 9.46099e-06 
7458 1 -11.5779 7.03999 2.224 1 0.000122969 
7459 1 -11.1118 5.28001 0.524049 1 5.26456e-05 
8328 1 -12.8041 7.03997 0.057196 1 2.31597e-05 
7874 1 -9.42085 7.04003 0.993097 1 0.000269783 
7876 1 -7.7294 5.28003 1.46442 1 0.00106231 
8288 1 -6.03211 7.04003 1.93545 1 0.00189183 
9095 1 -5.58247 5.28003 0.237713 1 0.00341416 
8290 1 -4.32458 5.28002 2.40083 1 0.00188419 
8319 1 -3.89079 7.04002 0.706438 1 0.00582081 
8734 1 -2.18477 5.28001 1.15888 1 0.0292345 
8735 1 -0.384899 7.04006 1.58584 1 0.509005 
9302 1 -0.0399626 5.28 0.000234669 1 0.670502 
10008 2 1.78877 7.04 0.333548 5 3.49139 
10011 2 3.9624 7.03993 1.58573 1 0.50975 
10428 2 7.46832 7.03999 0.706252 1 0.00582338 
10881 2 9.60964 7.03999 1.9352 1 0.00189206 
11295 2 12.9984 7.03998 0.992834 1 0.000270321 
11298 2 15.1554 7.03999 2.22376 1 0.000123229 
11711 2 16.3818 7.03996 0.0569792 1 2.31639e-05 
11713 2 18.5426 7.03996 1.2919 1 9.6173e-06 
65 4 -79.0217 8.79996 2.06392 5 18.5856 
66 4 -78.5586 10.56 0.365932 5 18.5856 
67 4 -77.3237 10.56 2.527 1 6.9989e-16 
68 4 -76.8606 8.79996 0.829019 1 1.29729e-15 
282 4 -75.1626 10.56 1.29211 1 6.99892e-16 
284 4 -73.4646 8.79996 1.75519 1 6.99736e-16 
1102 4 -73.0015 10.56 0.057208 1 4.00013e-16 
633 4 -71.7666 10.56 2.21828 1 1.86462e-10 
663 4 -71.3035 8.79996 0.520295 1 8.11108e-10 
664 1 -69.6056 10.56 0.983376 1 1.0467e-09 
1077 1 -67.9076 8.79999 1.44645 1 7.73357e-10 
1496 1 -64.5116 8.80002 2.37262 1 2.70853e-09 
1951 1 -65.7465 8.80001 0.211555 1 1.50416e-09 
1499 1 -62.3505 8.80004 1.13771 1 3.00753e-09 
1913 1 -58.9546 8.80007 2.06385 1 1.63253e-09 
2364 1 -56.7935 8.8001 0.828902 1 4.1406e-09 
2780 1 -53.3976 8.80009 1.755 1 2.37688e-09 
2782 1 -51.2366 8.8001 0.520045 1 6.88348e-09 
3200 1 -47.8406 8.8001 1.44613 1 3.03964e-09 
3614 1 -44.4447 8.80007 2.37222 1 4.39242e-09 
4508 1 -45.6796 8.80009 0.211189 1 8.07315e-09 
4056 1 -42.2836 8.80005 1.13727 1 8.01259e-09 
4475 1 -38.8876 8.80001 2.06334 1 7.62456e-09 
4478 1 -36.7265 8.79999 0.828467 1 8.32758e-09 
4899 1 -35.0284 10.56 1.29148 1 1.55585e-08 
4901 1 -33.3303 8.79994 1.7545 1 5.13745e-08 
5313 1 -31.6321 10.5599 2.2175 1 1.42192e-07 
5343 1 -31.1691 8.79991 0.519607 1 9.04152e-08 
5782 1 -32.8673 10.5599 0.0566036 1 2.63446e-08 
5344 1 -29.4709 10.5599 0.982559 1 2.62726e-07 
5757 1 -27.7727 8.79987 1.44553 1 6.4042e-07 
5758 1 -26.0747 10.5599 1.9085 1 1.23211e-06 
6176 1 -24.3768 8.79986 2.37159 1 1.71369e-06 
6177 1 -23.9132 10.5599 0.673368 1 2.35602e-06 
6631 1 -25.6113 8.79986 0.21048 1 1.14501e-06 
6179 1 -22.2153 8.79987 1.13637 1 3.72456e-06 
6591 1 -20.5179 10.5599 1.59958 1 4.49942e-06 
6593 1 -18.8213 8.79988 2.06314 1 4.11343e-06 
6619 1 -18.3563 10.5599 0.364081 1 1.05444e-05 
7014 1 -17.1254 10.5599 2.52718 1 4.39256e-06 
7044 1 -16.66 8.7999 0.827714 1 1.0329e-05 
7045 1 -14.9649 10.5599 1.29208 1 9.67307e-06 
7460 1 -13.271 8.79996 1.75749 1 2.77649e-05 
7461 1 -11.5779 10.56 2.224 1 0.000122347 
7462 1 -11.1118 8.8 0.524037 1 5.23721e-05 
8329 1 -12.8041 10.56 0.0571974 1 2.29262e-05 
7880 1 -7.72939 8.80003 1.46441 1 0.00106202 
9098 1 -5.58246 8.80006 0.237715 1 0.00341455 
8294 1 -4.32458 8.80005 2.40083 1 0.00188473 
8736 1 -2.18482 8.80004 1.15887 1 0.0292499 
9304 1 -0.039984 8.80004 0.000211668 1 0.67094 
10005 2 1.7888 8.8 2.14531 5 7.89372 
10006 2 3.61753 8.80001 0.000163416 1 0.671101 
10425 2 5.76231 8.80001 1.15872 1 0.0292495 
10456 2 7.90209 8.80002 2.40058 1 0.0018823 
10848 2 9.16003 8.8 0.23748 1 0.00341073 
10879 2 11.307 8.8 1.46413 1 0.00106021 
11291 2 12.9985 10.56 0.992827 1 0.000269754 
11293 2 14.6895 8.79998 0.523788 1 5.25941e-05 
11294 2 15.1555 10.56 2.22373 1 0.000123027 
11708 2 16.3818 10.56 0.056979 1 2.29673e-05 
11709 2 16.8487 8.79997 1.75725 1 2.80014e-05 
11710 2 18.5426 10.56 1.29191 1 9.52913e-06 
69 4 -79.0217 12.32 2.06392 5 18.5856 
72 4 -76.8606 12.32 0.829019 1 1.29728e-15 
288 4 -73.4646 12.32 1.75519 1 6.99726e-16 
665 4 -71.3035 12.32 0.520295 1 4.366e-10 
1079 1 -67.9076 12.32 1.44646 1 1.04566e-09 
1078 1 -66.2096 10.56 1.90954 1 3.13311e-09 
1500 1 -64.5116 12.32 2.37263 1 3.86662e-09 
1953 1 -65.7465 12.32 0.211566 1 2.67971e-09 
1497 1 -64.0485 10.56 0.674648 1 3.54284e-09 
1503 1 -62.3505 12.3201 1.13773 1 2.33242e-09 
1911 1 -60.6526 10.5601 1.60079 1 2.20649e-09 
1917 1 -58.9546 12.3201 2.06387 1 9.29373e-09 
1939 1 -58.4915 10.5601 0.365865 1 7.01598e-09 
2334 1 -57.2566 10.5601 2.52691 1 2.25e-09 
2366 1 -56.7935 12.3201 0.828919 1 3.54101e-09 
2365 1 -55.0956 10.5601 1.29196 1 1.48939e-09 
2781 1 -51.6997 10.5601 2.21806 1 3.3883e-09 
2783 1 -53.3976 12.3201 1.75502 1 3.37781e-09 
3649 1 -52.9345 10.5601 0.0570083 1 1.23277e-09 
2785 1 -51.2366 12.3201 0.520063 1 3.88219e-09 
3198 1 -49.5386 10.5601 0.983091 1 3.55804e-09 
3204 1 -47.8406 12.3201 1.44613 1 2.85765e-09 
3612 1 -46.1427 10.5601 1.90917 1 3.68871e-09 
3618 1 -44.4447 12.3201 2.3722 1 3.53268e-09 
3640 1 -43.9816 10.5601 0.674223 1 4.44879e-09 
4511 1 -45.6796 12.3201 0.211164 1 7.31746e-09 
4058 1 -42.2836 12.32 1.13724 1 6.83508e-09 
4057 1 -40.5856 10.56 1.60029 1 8.50921e-09 
4479 1 -38.8876 12.32 2.06332 1 8.48963e-09 
4476 1 -38.4246 10.56 0.365398 1 1.02906e-08 
4477 1 -37.1895 10.56 2.52637 1 1.4396e-08 
4482 1 -36.7265 12.32 0.828425 1 1.17158e-08 
4905 1 -33.3303 12.3199 1.75449 1 5.29339e-08 
5345 1 -31.1691 12.3199 0.519595 1 7.85419e-08 
5759 1 -27.7727 12.3199 1.44551 1 6.6186e-07 
6180 1 -24.3768 12.3199 2.37157 1 1.70204e-06 
6633 1 -25.6113 12.3199 0.210471 1 1.18572e-06 
6183 1 -22.2153 12.3199 1.13637 1 3.73903e-06 
6597 1 -18.8212 12.3199 2.06315 1 4.11941e-06 
7046 1 -16.66 12.3199 0.827696 1 1.04553e-05 
7463 1 -13.271 12.32 1.75748 1 2.7859e-05 
7465 1 -11.1119 12.32 0.524041 1 5.22636e-05 
7878 1 -9.42086 10.56 0.993093 1 0.000269259 
7884 1 -7.72942 12.3201 1.46442 1 0.0010632 
8292 1 -6.03212 10.5601 1.93546 1 0.00189708 
9101 1 -5.58248 12.3201 0.237719 1 0.00341421 
8298 1 -4.3246 12.3201 2.40083 1 0.00188391 
8320 1 -3.8908 10.5601 0.70646 1 0.00583121 
8737 1 -0.384918 10.56 1.58586 1 0.508965 
8738 1 -2.1848 12.3201 1.15889 1 0.0292402 
9306 1 -0.0399951 12.3201 0.000278964 1 0.670407 
10001 2 1.78798 12.3201 2.14534 5 7.894 
10004 2 1.78876 10.5601 0.333594 5 3.49176 
10002 2 3.6175 12.3201 0.000119148 1 0.671662 
10007 2 3.9624 10.5601 1.58572 1 0.509792 
10423 2 5.76233 12.3201 1.15872 1 0.0292511 
10426 2 7.46833 10.56 0.70626 1 0.0058325 
10452 2 7.9021 12.32 2.4006 1 0.00188376 
10846 2 9.16005 12.32 0.237489 1 0.00341558 
10877 2 9.60967 10.56 1.9352 1 0.00189667 
10875 2 11.307 12.32 1.46416 1 0.00106165 
11289 2 14.6895 12.32 0.523794 1 5.2736e-05 
11706 2 16.8487 12.32 1.75726 1 2.81373e-05 
70 4 -78.5586 14.08 0.365932 5 18.5856 
71 4 -77.3237 14.08 2.527 1 6.9988e-16 
73 4 -79.0217 15.84 2.06392 5 18.5856 
76 4 -76.8606 15.84 0.829019 1 1.29728e-15 
286 4 -75.1626 14.08 1.29211 1 6.99882e-16 
292 4 -73.4646 15.84 1.75519 1 6.99726e-16 
1106 4 -73.0015 14.08 0.057208 1 4.00003e-16 
637 4 -71.7666 14.08 2.21828 1 5.25108e-11 
666 1 -69.6056 14.08 0.983379 1 1.5914e-09 
667 4 -71.3035 15.84 0.520295 1 3.09234e-10 
1081 1 -67.9076 15.84 1.44645 1 3.32552e-09 
1080 1 -66.2096 14.08 1.90954 1 8.00795e-10 
1501 1 -64.0485 14.08 0.674644 1 1.78167e-09 
1915 1 -60.6526 14.0801 1.60081 1 3.27108e-09 
1940 1 -58.4915 14.0801 0.365874 1 7.89034e-09 
2338 1 -57.2566 14.0801 2.52694 1 4.00703e-09 
2367 1 -55.0956 14.0801 1.29198 1 3.33006e-09 
2784 1 -51.6996 14.0801 2.21808 1 3.63972e-09 
3650 1 -52.9345 14.0801 0.0570172 1 4.45235e-09 
3202 1 -49.5386 14.0801 0.983111 1 2.33652e-09 
3616 1 -46.1427 14.0801 1.90916 1 5.18422e-09 
3641 1 -43.9816 14.0801 0.674189 1 9.24324e-09 
4059 1 -40.5856 14.08 1.60028 1 1.0765e-08 
4483 1 -38.8876 15.84 2.06332 1 1.42084e-08 
4480 1 -38.4246 14.08 0.365378 1 1.33826e-08 
4481 1 -37.1895 14.08 2.52634 1 1.45703e-08 
4486 1 -36.7265 15.84 0.828431 1 1.00821e-08 
4903 1 -35.0284 14.08 1.29146 1 1.7636e-08 
4909 1 -33.3302 15.8399 1.75448 1 8.21946e-08 
5317 1 -31.6321 14.0799 2.21748 1 1.59107e-07 
5347 1 -31.169 15.8399 0.519571 1 1.29053e-07 
5786 1 -32.8673 14.0799 0.056587 1 2.47768e-08 
5346 1 -29.4709 14.0799 0.982554 1 2.75543e-07 
5760 1 -26.0747 14.0799 1.9085 1 1.15101e-06 
5761 1 -27.7727 15.8399 1.44551 1 6.42888e-07 
6181 1 -23.9131 14.0799 0.673376 1 2.32114e-06 
6184 1 -24.3768 15.8399 2.37158 1 1.59894e-06 
6635 1 -25.6113 15.8399 0.210477 1 1.20576e-06 
6187 1 -22.2153 15.8399 1.13639 1 3.61257e-06 
6595 1 -20.5179 14.0799 1.59959 1 4.55184e-06 
6601 1 -18.8212 15.8399 2.06315 1 4.1544e-06 
6620 1 -18.3563 14.0799 0.364089 1 1.07339e-05 
7018 1 -17.1254 14.0799 2.5272 1 4.33619e-06 
7048 1 -16.66 15.8399 0.827725 1 1.02722e-05 
7047 1 -14.9649 14.0799 1.2921 1 9.49687e-06 
7466 1 -13.2711 15.84 1.75748 1 2.79202e-05 
7464 1 -11.5779 14.08 2.22399 1 0.000123113 
8330 1 -12.8042 14.08 0.0571869 1 2.30789e-05 
7882 1 -9.4209 14.08 0.993099 1 0.000270051 
8296 1 -6.03215 14.0801 1.93546 1 0.00189454 
8321 1 -3.8908 14.0801 0.706453 1 0.00582922 
8739 1 -0.384887 14.0801 1.58589 1 0.508448 
10000 2 1.78877 14.0801 0.333547 5 3.49116 
10003 2 3.96237 14.0801 1.58574 1 0.510219 
10424 2 7.46834 14.0801 0.706257 1 0.00582396 
10873 2 9.60967 14.08 1.93522 1 0.00189543 
11285 2 14.6895 15.84 0.523819 1 5.23299e-05 
11287 2 12.9985 14.08 0.992849 1 0.000269309 
11290 2 15.1555 14.08 2.22375 1 0.000123132 
11703 2 16.8487 15.84 1.75729 1 2.79099e-05 
11705 2 16.3818 14.08 0.0569908 1 2.30489e-05 
11707 2 18.5426 14.08 1.29194 1 9.53899e-06 
74 4 -78.5586 17.6 0.365932 5 18.5856 
75 4 -77.3237 17.6 2.527 1 6.9988e-16 
290 4 -75.1626 17.6 1.29211 1 6.99882e-16 
1110 4 -73.0015 17.6 0.057208 1 4.00003e-16 
641 4 -71.7666 17.6 2.21828 1 1.1382e-10 
668 1 -69.6056 17.6 0.983382 1 1.10892e-09 
1082 1 -66.2096 17.6 1.90954 1 1.25036e-09 
1504 1 -64.5116 15.84 2.37263 1 1.88071e-09 
1955 1 -65.7465 15.84 0.211575 1 4.39383e-09 
1505 1 -64.0485 17.6001 0.674637 1 3.55648e-09 
1507 1 -62.3505 15.8401 1.13772 1 2.62848e-09 
1919 1 -60.6525 17.6001 1.6008 1 4.67725e-09 
1921 1 -58.9546 15.8401 2.06389 1 5.95016e-09 
1941 1 -58.4915 17.6001 0.365873 1 7.1692e-09 
2342 1 -57.2566 17.6001 2.52695 1 1.00951e-08 
2368 1 -56.7935 15.8401 0.828926 1 4.22231e-09 
2369 1 -55.0956 17.6001 1.29199 1 3.48979e-09 
2786 1 -53.3976 15.8401 1.75504 1 7.04145e-09 
2787 1 -51.6996 17.6001 2.21808 1 5.6312e-09 
3651 1 -52.9345 17.6001 0.0570252 1 3.38538e-09 
2788 1 -51.2366 15.8401 0.520069 1 2.91928e-09 
3206 1 -49.5386 17.6001 0.983109 1 2.1957e-09 
3208 1 -47.8406 15.8401 1.44615 1 2.68925e-09 
3620 1 -46.1427 17.6001 1.90917 1 3.61957e-09 
3622 1 -44.4447 15.84 2.37218 1 8.45762e-09 
3642 1 -43.9816 17.6001 0.674197 1 5.62893e-09 
4514 1 -45.6796 15.8401 0.211153 1 3.70587e-09 
4060 1 -42.2836 15.84 1.13724 1 5.29375e-09 
4061 1 -40.5856 17.6 1.60029 1 8.55327e-09 
4484 1 -38.4246 17.6 0.365383 1 2.28769e-08 
4485 1 -37.1895 17.5999 2.52635 1 1.49473e-08 
4907 1 -35.0284 17.5999 1.29147 1 1.5585e-08 
5321 1 -31.6321 17.5999 2.21749 1 2.11929e-07 
5790 1 -32.8672 17.5999 0.0565947 1 2.97258e-08 
5348 1 -29.4708 17.5999 0.98256 1 3.10083e-07 
5762 1 -26.0746 17.5999 1.90851 1 1.16376e-06 
6185 1 -23.9131 17.5999 0.673389 1 2.35049e-06 
6599 1 -20.5179 17.5999 1.5996 1 4.55069e-06 
6621 1 -18.3563 17.5999 0.364108 1 1.06486e-05 
7022 1 -17.1254 17.5999 2.52722 1 4.3311e-06 
7049 1 -14.9649 17.6 1.29211 1 9.55604e-06 
7467 1 -11.5779 17.6 2.224 1 0.000123026 
7468 1 -11.1119 15.84 0.524036 1 5.26199e-05 
8331 1 -12.8042 17.6 0.0572019 1 2.29204e-05 
7886 1 -9.42092 17.6 0.993108 1 0.00027022 
7888 1 -7.72945 15.8401 1.46442 1 0.0010635 
8300 1 -6.03215 17.6001 1.93545 1 0.00189136 
9104 1 -5.58251 15.8401 0.23771 1 0.00341672 
8302 1 -4.3246 15.8401 2.40082 1 0.00188141 
8322 1 -3.89081 17.6001 0.706442 1 0.00582436 
8740 1 -2.18479 15.8401 1.15888 1 0.0292288 
8741 1 -0.384888 17.6001 1.58589 1 0.508681 
9308 1 -0.0399726 15.8401 0.000239046 1 0.670397 
9996 2 1.78878 17.6001 0.333539 5 3.4911 
9997 2 1.78818 15.8401 2.1453 5 7.89343 
9998 2 3.61751 15.8401 8.86243e-05 1 0.671386 
9999 2 3.96237 17.6001 1.58574 1 0.510001 
10421 2 5.76234 15.8401 1.15874 1 0.0292519 
10422 2 7.46836 17.6 0.706261 1 0.0058273 
10448 2 7.90211 15.84 2.40062 1 0.00188388 
10844 2 9.16007 15.84 0.237501 1 0.003417 
10869 2 9.60969 17.6 1.93523 1 0.00189628 
10871 2 11.307 15.84 1.46418 1 0.00106449 
11283 2 12.9985 17.6 0.992868 1 0.000269731 
11286 2 15.1555 17.6 2.22377 1 0.000123181 
11702 2 16.3818 17.6 0.0570029 1 2.30964e-05 
11704 2 18.5426 17.6 1.29195 1 9.52165e-06 
77 4 -79.0217 19.36 2.06392 5 18.5856 
78 4 -78.5586 21.12 0.365932 5 18.5856 
79 4 -77.3237 21.12 2.527 1 6.9988e-16 
80 4 -76.8606 19.36 0.829019 1 1.29728e-15 
294 4 -75.1626 21.12 1.29211 1 6.99882e-16 
296 4 -73.4646 19.36 1.75519 1 6.99726e-16 
1114 4 -73.0015 21.12 0.057208 1 4.00003e-16 
645 4 -71.7666 21.12 2.21828 1 1.80422e-10 
669 4 -71.3035 19.36 0.520295 1 8.31753e-10 
670 1 -69.6056 21.12 0.98338 1 1.84878e-09 
1083 1 -67.9076 19.36 1.44646 1 1.60166e-09 
1508 1 -64.5116 19.36 2.37262 1 1.36557e-09 
1957 1 -65.7465 19.36 0.211566 1 1.60864e-09 
1511 1 -62.3505 19.3601 1.13772 1 2.91593e-09 
1925 1 -58.9546 19.3601 2.06387 1 4.00432e-09 
2370 1 -56.7935 19.3601 0.828922 1 2.13775e-09 
2789 1 -53.3976 19.3601 1.75503 1 5.07384e-09 
2791 1 -51.2366 19.3601 0.520072 1 4.07116e-09 
3212 1 -47.8407 19.3601 1.44614 1 4.05764e-09 
3626 1 -44.4447 19.36 2.3722 1 5.59158e-09 
4517 1 -45.6796 19.3601 0.211169 1 3.25734e-09 
4062 1 -42.2836 19.36 1.13726 1 1.01399e-08 
4063 1 -40.5856 21.12 1.60033 1 1.00121e-08 
4487 1 -38.8876 19.36 2.06334 1 7.11385e-09 
4488 1 -38.4246 21.1199 0.365423 1 1.90529e-08 
4489 1 -37.1895 21.1199 2.52639 1 1.20056e-08 
4490 1 -36.7265 19.3599 0.828453 1 1.17515e-08 
4911 1 -35.0284 21.1199 1.29151 1 1.52827e-08 
4913 1 -33.3302 19.3599 1.7545 1 7.17851e-08 
5325 1 -31.6321 21.1199 2.21753 1 1.52287e-07 
5349 1 -31.169 19.3599 0.51961 1 9.82236e-08 
5794 1 -32.8673 21.1199 0.0566422 1 2.51446e-08 
5350 1 -29.4708 21.1199 0.982598 1 2.85343e-07 
5763 1 -27.7727 19.3599 1.44554 1 6.99331e-07 
5764 1 -26.0746 21.1199 1.90854 1 1.24886e-06 
6188 1 -24.3768 19.3599 2.3716 1 1.71064e-06 
6189 1 -23.9131 21.1199 0.673398 1 2.41889e-06 
6637 1 -25.6113 19.3599 0.210498 1 1.24141e-06 
6191 1 -22.2153 19.3599 1.13639 1 3.72618e-06 
6603 1 -20.5179 21.1199 1.59961 1 4.49541e-06 
6605 1 -18.8212 19.3599 2.06317 1 4.23871e-06 
6622 1 -18.3563 21.12 0.36412 1 1.05495e-05 
7026 1 -17.1254 21.12 2.52722 1 4.38932e-06 
7050 1 -16.66 19.36 0.827737 1 1.04904e-05 
7051 1 -14.9649 21.12 1.29214 1 9.48707e-06 
7469 1 -13.2711 19.36 1.75751 1 2.80469e-05 
7471 1 -11.1119 19.36 0.52406 1 5.23154e-05 
7892 1 -7.72944 19.3601 1.46442 1 0.00106097 
9107 1 -5.5825 19.3601 0.237706 1 0.00340909 
8306 1 -4.32462 19.3601 2.40082 1 0.00188134 
8742 1 -2.18482 19.3601 1.15887 1 0.0292323 
9310 1 -0.0399932 19.3601 0.000244099 1 0.670586 
9993 2 1.78828 19.3601 2.14531 5 7.8936 
9994 2 3.61752 19.3601 0.000115131 1 0.671328 
10419 2 5.76235 19.3601 1.15873 1 0.029246 
10444 2 7.90214 19.36 2.4006 1 0.00188229 
10842 2 9.16009 19.36 0.237503 1 0.00341599 
10867 2 11.307 19.36 1.46418 1 0.00106311 
11279 2 12.9985 21.12 0.992861 1 0.000269648 
11281 2 14.6895 19.36 0.523825 1 5.25744e-05 
11282 2 15.1555 21.12 2.22377 1 0.000122897 
11699 2 16.3818 21.12 0.0570152 1 2.28229e-05 
11700 2 16.8487 19.36 1.7573 1 2.80466e-05 
11701 2 18.5426 21.12 1.29195 1 9.49679e-06 
81 4 -79.0217 22.88 2.06392 5 18.5856 
84 4 -76.8606 22.88 0.829019 1 1.29728e-15 
300 4 -73.4646 22.88 1.75519 1 6.99726e-16 
671 4 -71.3035 22.88 0.520295 1 7.54117e-10 
1085 1 -67.9076 22.88 1.44645 1 1.19774e-09 
1084 1 -66.2096 21.12 1.90954 1 2.53017e-09 
1512 1 -64.5116 22.88 2.37262 1 1.87534e-09 
1959 1 -65.7465 22.88 0.211554 1 5.61389e-09 
1509 1 -64.0485 21.1201 0.674644 1 3.1347e-09 
1515 1 -62.3505 22.8801 1.1377 1 3.24797e-09 
1923 1 -60.6526 21.1201 1.60079 1 2.54428e-09 
1929 1 -58.9546 22.8801 2.06384 1 2.17861e-09 
1942 1 -58.4915 21.1201 0.36586 1 1.48545e-09 
2346 1 -57.2566 21.1201 2.52692 1 1.58849e-09 
2372 1 -56.7935 22.8801 0.82891 1 1.55211e-09 
2371 1 -55.0956 21.1201 1.29197 1 3.21004e-09 
2790 1 -51.6996 21.1201 2.21807 1 3.95189e-09 
2792 1 -53.3976 22.8801 1.75501 1 1.07284e-09 
3652 1 -52.9345 21.1201 0.0570215 1 3.47053e-09 
2794 1 -51.2366 22.8801 0.520058 1 1.93593e-09 
3210 1 -49.5386 21.1201 0.983103 1 2.56965e-09 
3216 1 -47.8406 22.8801 1.44614 1 2.31729e-09 
3624 1 -46.1427 21.1201 1.90918 1 7.15886e-09 
3630 1 -44.4447 22.88 2.37222 1 8.01368e-09 
3643 1 -43.9816 21.12 0.674232 1 5.48389e-09 
4520 1 -45.6796 22.8801 0.211192 1 3.51046e-09 
4064 1 -42.2836 22.88 1.1373 1 1.051e-08 
4491 1 -38.8876 22.8799 2.06338 1 7.66395e-09 
4494 1 -36.7265 22.8799 0.828492 1 1.25361e-08 
4917 1 -33.3303 22.8799 1.75455 1 4.38455e-08 
5351 1 -31.1691 22.8799 0.519659 1 9.63568e-08 
5765 1 -27.7727 22.8799 1.44557 1 6.7053e-07 
6192 1 -24.3768 22.8799 2.37163 1 1.76924e-06 
6639 1 -25.6113 22.8799 0.210521 1 1.18699e-06 
6195 1 -22.2153 22.8799 1.13641 1 3.80294e-06 
6609 1 -18.8213 22.88 2.06318 1 4.1508e-06 
7052 1 -16.66 22.88 0.827752 1 1.04948e-05 
7472 1 -13.2711 22.88 1.75754 1 2.76984e-05 
7470 1 -11.5779 21.12 2.22402 1 0.00012276 
7474 1 -11.1119 22.88 0.524071 1 5.26872e-05 
8332 1 -12.8042 21.12 0.057229 1 2.28283e-05 
7890 1 -9.42089 21.12 0.993123 1 0.000269382 
7896 1 -7.72943 22.8801 1.46443 1 0.00106058 
8304 1 -6.03215 21.1201 1.93546 1 0.00189181 
9110 1 -5.58251 22.8801 0.237722 1 0.00341259 
8310 1 -4.32462 22.8801 2.40084 1 0.00188485 
8323 1 -3.89083 21.1201 0.706455 1 0.00582711 
8743 1 -0.384948 21.1201 1.58586 1 0.508872 
8744 1 -2.18484 22.8801 1.15888 1 0.0292338 
9312 1 -0.0400176 22.8801 0.000202634 1 0.670397 
9989 2 1.78833 22.8801 2.14531 5 7.89365 
9992 2 1.78875 21.1201 0.333595 5 3.49178 
9990 2 3.61754 22.8801 0.000155797 1 0.671465 
9995 2 3.96241 21.1201 1.58572 1 0.509935 
10417 2 5.76236 22.8801 1.15873 1 0.0292494 
10420 2 7.46838 21.12 0.706264 1 0.00582939 
10440 2 7.90217 22.88 2.40061 1 0.00188201 
10840 2 9.1601 22.88 0.237502 1 0.00341112 
10865 2 9.60973 21.12 1.93522 1 0.00189624 
10863 2 11.307 22.88 1.46417 1 0.00106129 
11277 2 14.6895 22.88 0.523827 1 5.28209e-05 
11697 2 16.8487 22.88 1.75729 1 2.8039e-05 
82 4 -78.5586 24.64 0.365932 5 18.5856 
83 4 -77.3237 24.64 2.527 1 6.9988e-16 
85 4 -79.0217 26.4 2.06392 5 18.5856 
88 4 -76.8606 26.4 0.829019 1 1.29728e-15 
298 4 -75.1626 24.64 1.29211 1 6.99882e-16 
304 4 -73.4646 26.4 1.75519 1 6.99726e-16 
1118 4 -73.0015 24.64 0.057208 1 4.00003e-16 
649 4 -71.7666 24.64 2.21828 1 3.13134e-10 
672 1 -69.6056 24.64 0.98337 1 1.77643e-09 
673 4 -71.3035 26.4 0.520295 1 9.70904e-10 
1087 1 -67.9076 26.4 1.44643 1 2.61777e-09 
1086 1 -66.2096 24.64 1.90952 1 1.72227e-09 
1513 1 -64.0485 24.6401 0.674619 1 1.38972e-09 
1927 1 -60.6526 24.6401 1.60076 1 1.7141e-09 
1943 1 -58.4915 24.6401 0.365848 1 4.8018e-09 
2350 1 -57.2566 24.6401 2.5269 1 1.66156e-09 
2373 1 -55.0956 24.6401 1.29195 1 1.81344e-09 
2793 1 -51.6996 24.6401 2.21806 1 2.71322e-09 
3653 1 -52.9345 24.6401 0.0570066 1 9.79131e-10 
3214 1 -49.5386 24.6401 0.983106 1 1.49017e-09 
3628 1 -46.1427 24.6401 1.90919 1 2.0777e-09 
3644 1 -43.9816 24.64 0.674257 1 7.30564e-09 
4066 1 -42.2836 26.4 1.13732 1 5.96735e-09 
4065 1 -40.5856 24.64 1.60035 1 4.861e-09 
4495 1 -38.8876 26.3999 2.06341 1 5.38882e-09 
4492 1 -38.4245 24.6399 0.365463 1 1.1154e-08 
4493 1 -37.1895 24.6399 2.52642 1 9.05002e-09 
4498 1 -36.7265 26.3999 0.828514 1 7.97876e-09 
4915 1 -35.0284 24.6399 1.29154 1 1.144e-08 
4921 1 -33.3303 26.3999 1.75456 1 4.81839e-08 
5329 1 -31.6321 24.6399 2.21757 1 1.62084e-07 
5353 1 -31.1691 26.3999 0.519662 1 7.74354e-08 
5798 1 -32.8673 24.6399 0.0566621 1 2.53077e-08 
5352 1 -29.4709 24.6399 0.982629 1 2.78559e-07 
5766 1 -26.0747 24.6399 1.90856 1 1.23445e-06 
5767 1 -27.7727 26.3999 1.44557 1 6.91341e-07 
6193 1 -23.9132 24.6399 0.673421 1 2.42809e-06 
6196 1 -24.3769 26.3999 2.37164 1 1.69879e-06 
6641 1 -25.6113 26.3999 0.21052 1 1.26168e-06 
6199 1 -22.2153 26.3999 1.13641 1 3.70453e-06 
6607 1 -20.518 24.64 1.59962 1 4.50427e-06 
6613 1 -18.8213 26.4 2.06318 1 4.17354e-06 
6623 1 -18.3563 24.64 0.364123 1 1.06874e-05 
7030 1 -17.1254 24.64 2.52724 1 4.35876e-06 
7053 1 -14.9649 24.64 1.29216 1 9.44176e-06 
7473 1 -11.5779 24.64 2.22405 1 0.000123216 
8333 1 -12.8042 24.64 0.0572469 1 2.30139e-05 
7894 1 -9.4209 24.64 0.99313 1 0.000270111 
8308 1 -6.03215 24.6401 1.93547 1 0.00189243 
8324 1 -3.89083 24.6401 0.706458 1 0.00582533 
8745 1 -0.384927 24.6401 1.58587 1 0.508546 
9988 2 1.78877 24.6401 0.33356 5 3.49138 
9991 2 3.96242 24.6401 1.58574 1 0.510268 
10418 2 7.46839 24.6401 0.706266 1 0.00581981 
10861 2 9.60971 24.64 1.93522 1 0.00189134 
11275 2 12.9985 24.64 0.992873 1 0.000270209 
11278 2 15.1555 24.64 2.22378 1 0.000123037 
11696 2 16.3818 24.64 0.0570195 1 2.28682e-05 
11698 2 18.5426 24.64 1.29194 1 9.62323e-06 
86 4 -78.5586 28.16 0.365932 5 18.5856 
87 4 -77.3237 28.16 2.527 1 6.9988e-16 
302 4 -75.1626 28.16 1.29211 1 6.99882e-16 
1122 4 -73.0015 28.16 0.057208 1 4.00003e-16 
653 4 -71.7666 28.16 2.21828 1 2.17071e-10 
674 1 -69.6056 28.16 0.983368 1 1.56197e-09 
1088 1 -66.2096 28.16 1.90951 1 5.76618e-09 
1516 1 -64.5116 26.4 2.3726 1 1.5501e-09 
1961 1 -65.7465 26.4 0.211521 1 3.50441e-09 
1517 1 -64.0485 28.16 0.674603 1 2.15342e-09 
1519 1 -62.3505 26.4001 1.13769 1 1.20395e-09 
1931 1 -60.6526 28.1601 1.60076 1 2.69839e-09 
1933 1 -58.9546 26.4001 2.06384 1 5.13738e-09 
1944 1 -58.4915 28.1601 0.365836 1 1.94749e-09 
2354 1 -57.2566 28.1601 2.5269 1 3.93278e-09 
2374 1 -56.7935 26.4001 0.828895 1 2.94963e-09 
2375 1 -55.0956 28.1601 1.29195 1 3.214e-09 
2795 1 -53.3976 26.4001 1.755 1 2.52023e-09 