ITEM: TIMESTEP
0
ITEM: NUMBER OF ATOMS
26260
ITEM: BOX BOUNDS ss pp pp
-61.4846 114.752
0 40.1342
0 40.1342
ITEM: ATOMS id type x y z c_cna c_csd 
90 4 -61.4845 0.191026 1.42589 5 18.5856 
92 4 -61.4845 2.66082 1.73462 5 18.5856 
438 4 -59.7245 1.58029 0.345356 1 1.50312e-15 
439 4 -57.9645 0.191026 1.42589 1 7.01627e-16 
443 4 -57.9645 2.66082 1.73462 1 7.0006e-16 
958 4 -56.2045 1.58029 0.345356 1 1.50312e-15 
959 4 -54.4445 0.191026 1.42589 1 7.01627e-16 
963 4 -54.4445 2.66082 1.73462 1 7.0006e-16 
1478 4 -52.6845 1.58029 0.345356 1 4.87928e-10 
1479 1 -50.9245 0.191021 1.42589 1 1.60209e-09 
1483 1 -50.9245 2.66082 1.73462 1 2.48523e-09 
1998 1 -49.1645 1.58026 0.345358 1 3.27482e-09 
1999 1 -47.4045 0.191008 1.42589 1 3.34556e-09 
2003 1 -47.4045 2.66079 1.73461 1 2.61224e-09 
2518 1 -45.6445 1.58024 0.345341 1 2.97166e-09 
2519 1 -43.8845 0.190964 1.42588 1 4.33218e-09 
2523 1 -43.8845 2.66077 1.73458 1 1.40024e-09 
3038 1 -42.1245 1.58023 0.345332 1 1.27822e-09 
3039 1 -40.3645 0.190954 1.42589 1 4.25627e-09 
3043 1 -40.3645 2.66076 1.7346 1 2.17862e-09 
3558 1 -38.6045 1.58023 0.34536 1 2.39014e-09 
3559 1 -36.8445 0.190999 1.42592 1 2.42922e-09 
3563 1 -36.8445 2.66079 1.73464 1 3.56414e-09 
4078 1 -35.0845 1.58029 0.345409 1 4.74414e-09 
4079 1 -33.3245 0.191046 1.42597 1 1.2951e-09 
4083 1 -33.3244 2.66084 1.7347 1 2.40583e-09 
4598 1 -31.5644 1.58033 0.345475 1 3.50548e-09 
4599 1 -29.8044 0.19111 1.42604 1 5.46432e-09 
4603 1 -29.8044 2.66089 1.73479 1 6.47134e-09 
5118 1 -28.0444 1.58042 0.345564 1 5.25362e-09 
5119 1 -26.2843 0.191225 1.42614 1 4.2552e-09 
5123 1 -26.2844 2.66101 1.73488 1 4.93948e-09 
5638 1 -24.5243 1.58053 0.34566 1 8.22611e-09 
5639 1 -22.7643 0.191366 1.4262 1 2.34338e-08 
5643 1 -22.7643 2.66115 1.73496 1 1.50965e-08 
6158 1 -21.0042 1.58068 0.345731 1 5.63913e-08 
6159 1 -19.2441 0.191494 1.42619 1 1.47679e-07 
6163 1 -19.2441 2.66135 1.73502 1 1.3754e-07 
6678 1 -17.4841 1.58077 0.345781 1 4.86182e-07 
6679 1 -15.7242 0.191624 1.4261 1 2.65844e-06 
6683 1 -15.724 2.66166 1.73524 1 2.83775e-06 
7198 1 -13.9643 1.58039 0.34605 1 9.882e-06 
7199 1 -12.2046 0.191929 1.42645 1 4.1166e-05 
7203 1 -12.2054 2.66195 1.73654 1 4.87238e-05 
7718 1 -10.4454 1.57919 0.34864 1 0.000243354 
7719 1 -8.68605 0.193995 1.42886 1 0.00112594 
7723 1 -8.68969 2.66776 1.74149 1 0.00138013 
8238 1 -6.92502 1.58061 0.368358 1 0.00536103 
8239 1 -5.17446 0.206595 1.44586 1 0.02878 
8758 1 -3.3856 1.53632 0.440317 1 0.0913019 
8759 1 -1.66982 0.175968 1.58273 5 3.66316 
9101 2 0.239691 1.398 0.792877 5 1.24142 
9361 2 2.15633 0.120128 0.0367885 1 0.41006 
9362 2 2.15331 0.292775 2.48048 1 0.305297 
9363 2 3.87518 1.45389 1.08193 1 0.060563 
9881 2 5.63413 0.0494947 0.0350204 1 0.00497952 
9882 2 5.63607 0.332958 2.49293 1 0.00539246 
9883 2 7.39576 1.42578 1.10729 1 0.000988369 
10401 2 9.15219 0.0366433 0.0325175 1 0.000206295 
10402 2 9.15329 0.339795 2.50238 1 0.000210349 
10403 2 10.9129 1.42322 1.11245 1 4.82392e-05 
10921 2 12.6722 0.0348705 0.0337028 1 1.12163e-05 
10922 2 12.6723 0.342375 2.50382 1 9.63182e-06 
10923 2 14.432 1.42379 1.11442 1 2.42717e-06 
11441 2 16.192 0.0346733 0.0344818 1 5.37682e-07 
11442 2 16.192 0.343153 2.50421 1 6.70658e-07 
11443 2 17.952 1.42388 1.11502 1 1.52946e-07 
11961 2 19.712 0.0346265 0.0346756 1 4.71715e-08 
11962 2 19.7119 0.343308 2.50443 1 5.29802e-08 
11963 2 21.472 1.42387 1.1152 1 1.73207e-08 
12481 2 23.2321 0.0346347 0.0347157 1 9.46395e-09 
12482 2 23.232 0.343352 2.50451 1 8.64808e-09 
12483 2 24.9921 1.4239 1.11526 1 6.95259e-09 
118 4 -61.4845 5.13062 2.04334 5 18.5856 
495 4 -59.7245 4.05008 0.65408 1 5.00003e-16 
497 4 -57.9645 5.13062 2.04334 1 4e-16 
1015 4 -56.2045 4.05008 0.65408 1 5.00003e-16 
1017 4 -54.4445 5.13062 2.04334 1 4e-16 
1535 4 -52.6845 4.05008 0.65408 1 9.74095e-10 
1537 1 -50.9245 5.1306 2.04334 1 1.56175e-09 
2055 1 -49.1645 4.05006 0.654079 1 3.14369e-09 
2057 1 -47.4045 5.13059 2.04333 1 2.23551e-09 
2575 1 -45.6445 4.05004 0.654058 1 7.30991e-10 
2577 1 -43.8845 5.13057 2.04331 1 2.79899e-09 
3095 1 -42.1245 4.05002 0.654037 1 6.1398e-09 
3097 1 -40.3645 5.13057 2.04332 1 5.33704e-09 
3615 1 -38.6045 4.05003 0.654086 1 4.81715e-09 
3617 1 -36.8445 5.13058 2.04336 1 1.11365e-09 
4135 1 -35.0845 4.05007 0.654133 1 1.37405e-09 
4137 1 -33.3244 5.13063 2.04344 1 2.06728e-09 
4655 1 -31.5644 4.05013 0.654218 1 2.81253e-09 
4657 1 -29.8044 5.1307 2.04352 1 1.80502e-09 
5175 1 -28.0444 4.05021 0.654298 1 4.7558e-09 
5177 1 -26.2844 5.13081 2.0436 1 4.95514e-09 
5695 1 -24.5244 4.05031 0.65438 1 6.42887e-09 
5697 1 -22.7643 5.13093 2.04367 1 2.76117e-08 
6215 1 -21.0042 4.05046 0.654468 1 3.60182e-08 
6217 1 -19.2441 5.13113 2.04368 1 1.07399e-07 
6735 1 -17.484 4.05068 0.654491 1 6.07786e-07 
6737 1 -15.7238 5.13172 2.04357 1 3.02915e-06 
7255 1 -13.964 4.05087 0.654469 1 1.31896e-05 
7257 1 -12.2051 5.13339 2.04333 1 4.6462e-05 
7775 1 -10.4484 4.05027 0.654806 1 0.000378014 
7777 1 -8.69277 5.1362 2.03993 1 0.00254694 
8243 1 -5.14024 2.69656 1.77545 1 0.0369899 
8295 1 -6.91791 4.05208 0.668042 1 0.00821169 
8297 1 -5.10894 5.15553 2.0291 1 0.0522856 
8815 1 -3.31166 4.0113 0.693441 1 0.119931 
8763 1 -1.53505 2.67685 1.93515 1 0.306792 
8817 1 -1.5247 5.21143 1.99903 1 0.116865 
9102 2 0.232764 3.93835 0.726021 1 0.116817 
9364 2 2.01975 5.24392 1.92613 1 0.119928 
9367 2 2.0244 2.74592 2.08792 1 0.210446 
9365 2 3.81702 3.90825 0.781928 1 0.0522406 
9884 2 5.62596 5.26931 1.88533 1 0.00820726 
9887 2 5.63527 2.81426 2.17145 1 0.00985709 
9885 2 7.40081 3.89748 0.80122 1 0.002553 
10404 2 9.15644 5.28259 1.88712 1 0.000378059 
10405 2 10.9131 3.89408 0.803999 1 4.66971e-05 
10407 2 9.15594 2.81044 2.19134 1 0.000244164 
10924 2 12.6719 5.28293 1.88653 1 1.33713e-05 
10927 2 12.6722 2.81248 2.19433 1 1.06734e-05 
10925 2 14.4317 3.89382 0.805711 1 3.07803e-06 
11444 2 16.1919 5.28286 1.88674 1 6.0157e-07 
11447 2 16.1919 2.81306 2.19528 1 6.66445e-07 
11445 2 17.952 3.8937 0.80628 1 1.0081e-07 
11964 2 19.7121 5.28288 1.88695 1 2.81937e-08 
11967 2 19.712 2.81311 2.19563 1 3.05368e-08 
11965 2 21.4721 3.89366 0.806455 1 2.29227e-08 
12484 2 23.2321 5.28293 1.88704 1 8.09629e-09 
12487 2 23.2321 2.81312 2.19575 1 1.87421e-08 
12485 2 24.9921 3.8937 0.806525 1 4.65528e-09 
120 4 -61.4845 7.60041 2.35206 5 18.5856 
496 4 -59.7245 6.51988 0.962805 1 2.88311e-21 
501 4 -57.9645 7.60041 2.35206 1 8.07817e-22 
1016 4 -56.2045 6.51988 0.962805 1 2.88311e-21 
1021 4 -54.4445 7.60041 2.35206 1 8.07817e-22 
1536 4 -52.6845 6.51988 0.962805 1 1.48861e-09 
1541 1 -50.9245 7.60039 2.35206 1 2.55853e-09 
2056 1 -49.1645 6.51984 0.962808 1 5.72506e-09 
2061 1 -47.4045 7.60038 2.35206 1 4.61316e-09 
2576 1 -45.6445 6.51984 0.962783 1 1.98634e-09 
2581 1 -43.8845 7.60038 2.35204 1 2.58642e-09 
3096 1 -42.1245 6.51982 0.962779 1 1.53802e-09 
3101 1 -40.3645 7.60036 2.35206 1 1.97248e-09 
3616 1 -38.6045 6.51982 0.962808 1 5.2746e-09 
3621 1 -36.8445 7.60037 2.3521 1 1.49608e-09 
4136 1 -35.0844 6.51985 0.962866 1 5.55886e-09 
4141 1 -33.3244 7.60042 2.35216 1 2.12922e-09 
4656 1 -31.5644 6.51993 0.962937 1 1.54174e-09 
4661 1 -29.8044 7.60051 2.35223 1 9.2926e-10 
5176 1 -28.0444 6.52003 0.963011 1 5.44329e-09 
5181 1 -26.2844 7.60061 2.3523 1 4.47317e-09 
5696 1 -24.5244 6.52011 0.963088 1 5.63319e-09 
5701 1 -22.7643 7.60073 2.35236 1 1.51549e-08 
6216 1 -21.0043 6.52023 0.963134 1 4.42607e-08 
6221 1 -19.2442 7.6009 2.3523 1 1.10429e-07 
6736 1 -17.4841 6.52048 0.962979 1 3.62714e-07 
6741 1 -15.724 7.60151 2.352 1 1.75681e-06 
7256 1 -13.9638 6.52122 0.962166 1 1.16152e-05 
7261 1 -12.204 7.60375 2.35092 1 5.17832e-05 
7776 1 -10.446 6.5222 0.959184 1 0.00030821 
7781 1 -8.684 7.60735 2.34465 1 0.00116576 
8296 1 -6.92228 6.50746 0.951351 1 0.00940646 
8301 1 -5.16322 7.6066 2.31871 1 0.0498194 
8816 1 -3.31798 6.51195 0.857821 1 0.184554 
8821 1 -1.53768 7.74625 2.0549 5 1.22545 
9103 2 0.246457 6.46733 0.663074 1 0.25097 
9376 2 2.09908 7.72276 1.66186 1 0.0796868 
9366 2 3.84348 6.36766 0.533578 1 0.0332926 
9896 2 5.62975 7.73877 1.59187 1 0.00536546 
9886 2 7.39425 6.36578 0.504095 1 0.00133818 
10406 2 10.9124 6.36531 0.497642 1 6.751e-05 
10416 2 9.15165 7.75239 1.5808 1 0.000243237 
10936 2 12.6719 7.75287 1.57838 1 1.1698e-05 
10926 2 14.4318 6.36375 0.497488 1 2.01098e-06 
11456 2 16.192 7.7526 1.57818 1 4.83706e-07 
11446 2 17.9521 6.36345 0.497668 1 1.0807e-07 
11976 2 19.7121 7.75267 1.57828 1 2.63598e-08 
11966 2 21.4721 6.36346 0.49777 1 1.26355e-08 
12496 2 23.2321 7.75274 1.57836 1 9.80494e-09 
12486 2 24.9921 6.3635 0.497814 1 3.17857e-09 
146 4 -61.4845 10.0702 2.66079 5 18.5856 
147 4 -61.4845 10.3789 0.190994 5 18.5856 
553 4 -59.7245 8.98967 1.27153 1 3.21156e-21 
555 4 -57.9645 10.0702 2.66079 1 3.99962e-16 
556 4 -57.9645 10.3789 0.190994 1 7.00205e-16 
1073 4 -56.2045 8.98967 1.27153 1 3.21156e-21 
1075 4 -54.4445 10.0702 2.66079 1 3.99962e-16 
1076 4 -54.4445 10.3789 0.190994 1 7.00205e-16 
1593 4 -52.6845 8.98967 1.27153 1 1.69985e-09 
1595 1 -50.9245 10.0702 2.66079 1 3.14921e-09 
1596 1 -50.9245 10.3789 0.190995 1 1.53695e-09 
2113 1 -49.1645 8.98964 1.27153 1 4.81852e-09 
2115 1 -47.4045 10.0702 2.66079 1 1.8767e-09 
2116 1 -47.4045 10.3789 0.19099 1 2.02062e-09 
2633 1 -45.6445 8.98964 1.27152 1 3.86208e-09 
2635 1 -43.8845 10.0702 2.66079 1 5.51334e-09 
2636 1 -43.8845 10.3789 0.190991 1 3.46011e-09 
3153 1 -42.1245 8.98961 1.27152 1 4.03706e-09 
3155 1 -40.3645 10.0701 2.6608 1 7.60851e-09 
3156 1 -40.3645 10.3789 0.191003 1 2.07925e-09 
3673 1 -38.6045 8.98963 1.27155 1 3.3311e-09 
3675 1 -36.8445 10.0702 2.66082 1 5.08341e-09 
3676 1 -36.8445 10.3789 0.191028 1 3.58001e-09 
4193 1 -35.0845 8.98965 1.27159 1 5.71376e-09 
4195 1 -33.3244 10.0702 2.66086 1 1.84017e-09 
4196 1 -33.3244 10.379 0.191076 1 1.43988e-09 
4713 1 -31.5644 8.98974 1.27164 1 1.60318e-09 
4715 1 -29.8044 10.0703 2.66094 1 2.24129e-09 
4716 1 -29.8044 10.379 0.191139 1 1.23887e-09 
5233 1 -28.0444 8.98983 1.27173 1 3.15918e-09 
5235 1 -26.2843 10.0704 2.66102 1 3.83068e-09 
5236 1 -26.2844 10.3791 0.191224 1 5.60591e-09 
5753 1 -24.5244 8.98992 1.27179 1 5.43605e-09 
5755 1 -22.7643 10.0705 2.66105 1 1.39375e-08 
5756 1 -22.7644 10.3792 0.191261 1 4.24892e-09 
6273 1 -21.0043 8.99003 1.27181 1 2.3547e-08 
6275 1 -19.2443 10.0707 2.661 1 1.06136e-07 
6276 1 -19.2443 10.3793 0.191246 1 1.08346e-07 
6793 1 -17.4842 8.9902 1.27165 1 5.64787e-07 
6795 1 -15.7242 10.071 2.66098 1 2.60351e-06 
6796 1 -15.7241 10.3791 0.19104 1 2.46973e-06 
7313 1 -13.9638 8.99068 1.27116 1 1.10858e-05 
7315 1 -12.2034 10.0723 2.66151 1 4.27951e-05 
7316 1 -12.203 10.3782 0.191084 1 4.68472e-05 
7833 1 -10.4424 8.99142 1.27014 1 0.000243186 
7835 1 -8.68045 10.0796 2.66242 1 0.000992527 
7836 1 -8.67988 10.3744 0.195452 1 0.00111294 
8353 1 -6.92073 8.98789 1.26794 1 0.00495633 
8355 1 -5.17401 10.1123 2.67338 1 0.0236505 
8356 1 -5.16914 10.3627 0.215154 1 0.0240079 
8873 1 -3.44523 8.97439 1.26373 1 0.346023 
8876 1 -1.66519 10.2474 0.361916 5 3.70072 
9107 2 0.375282 8.96481 0.356914 5 3.70353 
9374 2 2.15349 10.2387 1.26118 1 0.342654 
9375 2 3.87757 8.85006 0.212716 1 0.02369 
9379 2 3.8824 9.10055 2.67091 1 0.023319 
9894 2 5.62898 10.2248 1.26574 1 0.00493098 
9895 2 7.388 8.83823 0.193196 1 0.00111047 
9899 2 7.38861 9.13298 2.66024 1 0.000993447 
10414 2 9.15053 10.2211 1.26793 1 0.000242332 
10415 2 10.911 8.83443 0.18881 1 4.71926e-05 
10419 2 10.9114 9.14026 2.65931 1 4.30071e-05 
10934 2 12.6718 10.2219 1.26891 1 1.13261e-05 
10935 2 14.432 8.83341 0.188778 1 2.461e-06 
10939 2 14.4321 9.14156 2.65872 1 2.70056e-06 
11454 2 16.1921 10.2224 1.26941 1 5.67271e-07 
11455 2 17.9521 8.83323 0.189003 1 8.76603e-08 
11459 2 17.9521 9.14185 2.65877 1 1.03762e-07 
11974 2 19.7121 10.2225 1.2696 1 1.5224e-08 
11975 2 21.4721 8.83328 0.18909 1 8.26858e-09 
11979 2 21.4721 9.14196 2.65888 1 1.29207e-08 
12494 2 23.2321 10.2226 1.26965 1 4.69786e-09 
12495 2 24.9921 8.83331 0.189109 1 5.37956e-09 
12499 2 24.9921 9.14204 2.65892 1 3.95172e-09 
174 4 -61.4845 12.8487 0.499718 5 18.5856 
554 4 -59.7245 11.4595 1.58025 1 1.30024e-15 
609 4 -57.9645 12.8487 0.499718 1 6.99043e-16 
1074 4 -56.2045 11.4595 1.58025 1 1.30024e-15 
1129 4 -54.4445 12.8487 0.499718 1 6.99043e-16 
1594 4 -52.6845 11.4595 1.58025 1 1.58445e-09 
1649 1 -50.9245 12.8487 0.499719 1 3.52212e-09 
2114 1 -49.1645 11.4594 1.58024 1 3.43245e-09 
2169 1 -47.4045 12.8487 0.499714 1 2.12321e-09 
2634 1 -45.6445 11.4594 1.58025 1 2.25103e-09 
2689 1 -43.8845 12.8487 0.499727 1 1.57677e-09 
3154 1 -42.1245 11.4594 1.58026 1 4.66059e-09 
3209 1 -40.3645 12.8487 0.499724 1 6.40135e-09 
3674 1 -38.6045 11.4594 1.58027 1 2.54828e-09 
3729 1 -36.8445 12.8487 0.499725 1 6.25233e-09 
4194 1 -35.0845 11.4595 1.58029 1 4.69933e-09 
4249 1 -33.3244 12.8488 0.499777 1 2.75804e-09 
4714 1 -31.5644 11.4595 1.58036 1 2.09302e-09 
4769 1 -29.8044 12.8488 0.499856 1 3.46043e-09 
5234 1 -28.0444 11.4596 1.58045 1 3.76928e-09 
5289 1 -26.2844 12.8489 0.49994 1 4.0191e-09 
5754 1 -24.5244 11.4597 1.5805 1 3.84904e-09 
5809 1 -22.7644 12.8491 0.499964 1 1.35463e-08 
6274 1 -21.0043 11.4599 1.5805 1 3.07492e-08 
6329 1 -19.2442 12.8491 0.499913 1 1.0639e-07 
6794 1 -17.4842 11.4599 1.58043 1 4.53313e-07 
6849 1 -15.7239 12.8488 0.499761 1 2.09629e-06 
7314 1 -13.964 11.4597 1.58064 1 1.15832e-05 
7369 1 -12.2044 12.8473 0.499918 1 6.68238e-05 
7834 1 -10.4436 11.4602 1.58303 1 0.000243458 
7889 1 -8.68612 12.8468 0.506292 1 0.0013461 
8354 1 -6.92149 11.4738 1.59409 1 0.00541897 
8409 1 -5.13464 12.8446 0.535694 1 0.0333486 
8874 1 -3.38945 11.4895 1.66495 1 0.0789782 
8929 1 -1.53812 12.7457 0.663404 1 0.245997 
9117 2 0.245411 11.4667 2.05366 5 1.20771 
9394 2 2.02601 12.7009 0.856525 1 0.18455 
9396 2 3.87143 11.6062 2.3167 1 0.0497997 
9914 2 5.63052 12.7052 0.949403 1 0.00941729 
9916 2 7.3922 11.6053 2.34254 1 0.00116315 
10434 2 9.15407 12.6904 0.957028 1 0.000309318 
10436 2 10.912 11.6088 2.34874 1 5.22116e-05 
10954 2 12.6718 12.6914 0.959935 1 1.17897e-05 
10956 2 14.4319 11.6111 2.34976 1 1.91423e-06 
11474 2 16.1919 12.6921 0.960751 1 3.98493e-07 
11476 2 17.9521 11.6117 2.35007 1 1.18642e-07 
11994 2 19.7121 12.6923 0.960933 1 3.34249e-08 
11996 2 21.4721 11.6118 2.35019 1 9.26807e-09 
12514 2 23.2321 12.6924 0.960955 1 2.73591e-09 
12516 2 24.9921 11.6118 2.35022 1 2.86957e-09 
176 4 -61.4845 15.3185 0.808442 5 18.5856 
610 4 -59.7245 13.9293 1.88898 1 5e-16 
613 4 -57.9645 15.3185 0.808442 1 2.88331e-21 
1130 4 -56.2045 13.9293 1.88898 1 5e-16 
1133 4 -54.4445 15.3185 0.808442 1 2.88331e-21 
1650 4 -52.6845 13.9293 1.88898 1 1.06149e-09 
1653 1 -50.9245 15.3185 0.80845 1 2.9053e-09 
2170 1 -49.1645 13.9292 1.88898 1 1.1442e-09 
2173 1 -47.4045 15.3185 0.80844 1 2.14352e-09 
2690 1 -45.6445 13.9292 1.88898 1 6.38018e-10 
2693 1 -43.8845 15.3185 0.808446 1 1.30407e-09 
3210 1 -42.1245 13.9292 1.88898 1 2.71408e-09 
3213 1 -40.3645 15.3185 0.808429 1 6.16053e-09 
3730 1 -38.6045 13.9292 1.88897 1 5.78473e-09 
3733 1 -36.8445 15.3185 0.80845 1 3.86867e-09 
4250 1 -35.0845 13.9292 1.88901 1 4.24583e-09 
4253 1 -33.3245 15.3185 0.808506 1 1.67001e-09 
4770 1 -31.5644 13.9293 1.88907 1 1.03622e-09 
4773 1 -29.8044 15.3186 0.808582 1 1.39184e-09 
5290 1 -28.0444 13.9294 1.88916 1 4.64221e-09 
5293 1 -26.2844 15.3188 0.808652 1 3.77741e-09 
5810 1 -24.5243 13.9296 1.88921 1 8.1453e-09 
5813 1 -22.7643 15.3189 0.808674 1 3.06792e-08 
6330 1 -21.0043 13.9297 1.88918 1 4.17729e-08 
6333 1 -19.2442 15.3189 0.808539 1 1.15429e-07 
6850 1 -17.484 13.9297 1.889 1 5.86456e-07 
6853 1 -15.7239 15.3187 0.80797 1 2.87941e-06 
7370 1 -13.964 13.9297 1.88878 1 1.28867e-05 
7373 1 -12.2051 15.3185 0.806279 1 4.59731e-05 
7890 1 -10.4484 13.93 1.88931 1 0.000378148 
7893 1 -8.69257 15.3151 0.803381 1 0.00253207 
8410 1 -6.91756 13.9431 1.88731 1 0.00819135 
8413 1 -5.10883 15.3043 0.783566 1 0.0521753 
8930 1 -3.31144 13.9689 1.92722 1 0.11914 
8933 1 -1.52461 15.2746 0.726487 1 0.117093 
9118 2 0.232852 14.0016 1.99867 1 0.116661 
9393 2 2.01993 15.2015 0.692453 1 0.120928 
9397 2 3.81714 14.0571 2.02761 1 0.052382 
9913 2 5.62631 15.1604 0.666067 1 0.00822648 
9917 2 7.40101 14.0764 2.03791 1 0.00256399 
10433 2 9.15651 15.1623 0.652638 1 0.000376 
10437 2 10.9131 14.0792 2.04116 1 4.62845e-05 
10953 2 12.672 15.1617 0.652255 1 1.33975e-05 
10957 2 14.4317 14.0809 2.04136 1 3.1354e-06 
11473 2 16.1918 15.1619 0.65229 1 6.31983e-07 
11477 2 17.952 14.0814 2.04147 1 1.10592e-07 
11993 2 19.712 15.1621 0.652267 1 3.21865e-08 
11997 2 21.4721 14.0816 2.04151 1 1.57704e-08 
12513 2 23.2321 15.1622 0.652257 1 6.87757e-09 
12517 2 24.9921 14.0816 2.04152 1 4.91865e-09 
199 4 -61.4845 17.7883 1.11717 5 18.5856 
611 4 -59.7245 16.3991 2.1977 1 4.08001e-22 
659 4 -57.9645 17.7883 1.11717 1 1.21115e-21 
1131 4 -56.2045 16.3991 2.1977 1 4.08001e-22 
1179 4 -54.4445 17.7883 1.11717 1 1.21115e-21 
1651 4 -52.6845 16.3991 2.1977 1 5.95488e-10 
1699 1 -50.9245 17.7883 1.11716 1 3.59046e-09 
2171 1 -49.1645 16.3991 2.19771 1 3.98641e-09 
2219 1 -47.4045 17.7883 1.11717 1 6.26233e-09 
2691 1 -45.6445 16.399 2.1977 1 1.72385e-09 
2739 1 -43.8845 17.7883 1.11717 1 1.95727e-09 
3211 1 -42.1245 16.399 2.1977 1 3.03021e-09 
3259 1 -40.3645 17.7883 1.11717 1 2.10067e-09 
3731 1 -38.6045 16.399 2.1977 1 2.48566e-09 
3779 1 -36.8445 17.7883 1.11719 1 3.41953e-09 
4251 1 -35.0845 16.399 2.19775 1 8.44297e-09 
4299 1 -33.3245 17.7883 1.11724 1 2.8011e-09 
4771 1 -31.5644 16.3991 2.1978 1 1.71001e-09 
4819 1 -29.8044 17.7884 1.11731 1 1.33706e-09 
5291 1 -28.0444 16.3992 2.19788 1 2.23252e-09 
5339 1 -26.2844 17.7885 1.11738 1 3.50754e-09 
5811 1 -24.5243 16.3994 2.19794 1 1.30375e-08 
5859 1 -22.7643 17.7887 1.11743 1 3.30927e-08 
6331 1 -21.0042 16.3994 2.19788 1 3.41513e-08 
6379 1 -19.2442 17.7887 1.11727 1 1.27254e-07 
6851 1 -17.484 16.3995 2.19754 1 5.96247e-07 
6899 1 -15.7241 17.7888 1.11668 1 2.34092e-06 
7371 1 -13.9642 16.4001 2.19658 1 1.01638e-05 
7419 1 -12.2049 17.7893 1.11472 1 4.80408e-05 
7891 1 -10.4478 16.4021 2.19353 1 0.000243234 
7939 1 -8.68756 17.7868 1.10953 1 0.000989094 
8411 1 -6.92702 16.3983 2.1735 1 0.00982788 
8459 1 -5.167 17.7589 1.08413 1 0.0606126 
8931 1 -3.31642 16.4669 2.08937 1 0.210564 
8979 1 -1.53195 17.8148 0.794284 5 1.25455 
9130 2 0.243304 16.5363 1.93487 1 0.313277 
9421 2 2.09501 17.6759 0.437488 1 0.0914015 
9423 2 3.84916 16.5158 1.77327 1 0.0371126 
9941 2 5.63327 17.632 0.366069 1 0.00531856 
9943 2 7.39783 16.5448 1.73935 1 0.00136886 
10461 2 9.15344 17.6334 0.346391 1 0.000243262 
10463 2 10.9134 16.5506 1.73434 1 4.87561e-05 
10981 2 12.6722 17.6322 0.343816 1 9.96032e-06 
10983 2 14.4319 16.5509 1.73304 1 2.97163e-06 
11501 2 16.1919 17.6318 0.343577 1 5.81459e-07 
11503 2 17.9519 16.5512 1.73281 1 1.41669e-07 
12021 2 19.712 17.6319 0.343512 1 3.32809e-08 
12023 2 21.472 16.5514 1.73279 1 1.36698e-08 
12541 2 23.2321 17.6319 0.343509 1 6.8642e-09 
12543 2 24.9921 16.5514 1.73278 1 4.32352e-09 
201 4 -61.4845 20.2581 1.42589 5 18.5856 
658 4 -59.7245 19.1776 0.0366314 1 4.00003e-16 
660 4 -59.7245 18.8689 2.50643 1 3.99962e-16 
663 4 -57.9645 20.2581 1.42589 1 8.00324e-16 
1178 4 -56.2045 19.1776 0.0366314 1 4.00003e-16 
1180 4 -56.2045 18.8689 2.50643 1 3.99962e-16 
1183 4 -54.4445 20.2581 1.42589 1 8.00324e-16 
1698 4 -52.6845 19.1776 0.0366314 1 4.71929e-10 
1700 4 -52.6845 18.8689 2.50643 1 4.42994e-10 
1703 1 -50.9245 20.2581 1.42589 1 1.60275e-09 
2218 1 -49.1645 19.1776 0.0366245 1 2.21353e-09 
2220 1 -49.1645 18.8689 2.50643 1 6.46077e-09 
2223 1 -47.4045 20.2581 1.42589 1 3.34556e-09 
2738 1 -45.6445 19.1775 0.0366243 1 2.74156e-09 
2740 1 -45.6445 18.8688 2.50642 1 1.7448e-09 
2743 1 -43.8845 20.2581 1.42588 1 4.33218e-09 
3258 1 -42.1245 19.1775 0.0366208 1 2.1395e-09 
3260 1 -42.1245 18.8688 2.50643 1 2.75807e-09 
3263 1 -40.3645 20.258 1.42589 1 4.25623e-09 
3778 1 -38.6045 19.1775 0.0366526 1 4.49665e-09 
3780 1 -38.6045 18.8688 2.50644 1 3.1248e-09 
3783 1 -36.8445 20.2581 1.42592 1 2.4292e-09 
4298 1 -35.0845 19.1776 0.0366816 1 3.05503e-09 
4300 1 -35.0845 18.8688 2.50648 1 3.2209e-09 
4303 1 -33.3245 20.2581 1.42597 1 1.29511e-09 
4818 1 -31.5645 19.1776 0.0367372 1 3.89435e-09 
4820 1 -31.5644 18.8689 2.50653 1 5.44136e-09 
4823 1 -29.8044 20.2582 1.42604 1 5.46434e-09 
5338 1 -28.0444 19.1777 0.0368191 1 2.30346e-09 
5340 1 -28.0444 18.869 2.50662 1 2.46332e-09 
5343 1 -26.2843 20.2583 1.42614 1 4.25518e-09 
5858 1 -24.5243 19.1778 0.0368931 1 6.69003e-09 
5860 1 -24.5243 18.8691 2.50669 1 5.91814e-09 
5863 1 -22.7643 20.2585 1.4262 1 2.34338e-08 
6378 1 -21.0042 19.1779 0.0369051 1 5.06327e-08 
6380 1 -21.0042 18.8693 2.50668 1 6.1331e-08 
6383 1 -19.2441 20.2586 1.42619 1 1.47679e-07 
6898 1 -17.4842 19.1779 0.0367295 1 4.78029e-07 
6900 1 -17.4841 18.8694 2.50645 1 6.49144e-07 
6903 1 -15.7242 20.2587 1.4261 1 2.65844e-06 
7418 1 -13.9642 19.1777 0.0359621 1 1.12962e-05 
7420 1 -13.9644 18.8702 2.50606 1 9.45449e-06 
7423 1 -12.2046 20.259 1.42645 1 4.1166e-05 
7938 1 -10.4441 19.1759 0.0348167 1 0.000205841 
7940 1 -10.4452 18.8727 2.50461 1 0.000210321 
7943 1 -8.68605 20.2611 1.42886 1 0.00112594 
8458 1 -6.92592 19.1632 0.0373675 1 0.00500292 
8460 1 -6.92783 18.8797 2.49522 1 0.00541072 
8463 1 -5.17446 20.2737 1.44586 1 0.02878 
8978 1 -3.44808 19.0929 0.0394292 1 0.41241 
8980 1 -3.44518 18.9203 2.48322 1 0.308791 
8983 1 -1.66982 20.2431 1.58273 5 3.66316 
9131 2 0.379771 19.0362 1.57729 5 3.66917 
9420 2 2.15633 20.1872 0.0367885 1 0.41006 
9459 2 2.15331 20.3599 2.48048 1 0.305297 
9424 2 3.8829 19.0063 1.44331 1 0.0284091 
9940 2 5.63413 20.1166 0.0350204 1 0.00497952 
9979 2 5.63607 20.4 2.49293 1 0.00539246 
9944 2 7.39419 19.0186 1.42659 1 0.00112647 
10460 2 9.15219 20.1037 0.0325175 1 0.000206295 
10464 2 10.9126 19.0206 1.4242 1 4.1035e-05 
10499 2 9.15329 20.4069 2.50238 1 0.000210349 
10980 2 12.6722 20.102 0.0337028 1 1.12163e-05 
11019 2 12.6723 20.4095 2.50382 1 9.63182e-06 
10984 2 14.4321 19.0209 1.42388 1 2.70109e-06 
11500 2 16.192 20.1018 0.0344818 1 5.37682e-07 
11539 2 16.192 20.4102 2.50421 1 6.70658e-07 
11504 2 17.9519 19.0211 1.42395 1 1.72402e-07 
12020 2 19.712 20.1017 0.0346756 1 4.71715e-08 
12059 2 19.7119 20.4104 2.50443 1 5.29802e-08 
12024 2 21.472 19.0212 1.424 1 1.76422e-08 
12540 2 23.2321 20.1017 0.0347157 1 9.46399e-09 
12579 2 23.232 20.4104 2.50451 1 8.64808e-09 
12544 2 24.9921 19.0212 1.42402 1 5.53863e-09 
220 4 -61.4845 22.7279 1.73462 5 18.5856 
699 4 -59.7245 21.6474 0.345356 1 1.0024e-15 
701 4 -57.9645 22.7279 1.73462 1 7.0008e-16 
1219 4 -56.2045 21.6474 0.345356 1 1.0024e-15 
1221 4 -54.4445 22.7279 1.73462 1 7.0008e-16 
1739 4 -52.6845 21.6474 0.345356 1 4.88773e-10 
1741 1 -50.9245 22.7279 1.73462 1 2.48533e-09 
2259 1 -49.1645 21.6474 0.345358 1 3.27497e-09 
2261 1 -47.4045 22.7279 1.73461 1 2.61225e-09 
2779 1 -45.6445 21.6473 0.345341 1 2.97168e-09 
2781 1 -43.8845 22.7279 1.73458 1 1.40024e-09 
3299 1 -42.1245 21.6473 0.345332 1 1.27821e-09 
3301 1 -40.3645 22.7278 1.7346 1 2.17862e-09 
3819 1 -38.6045 21.6473 0.34536 1 2.39014e-09 
3821 1 -36.8445 22.7279 1.73464 1 3.56415e-09 
4339 1 -35.0845 21.6474 0.345409 1 4.74411e-09 
4341 1 -33.3244 22.7279 1.7347 1 2.40585e-09 
4859 1 -31.5644 21.6474 0.345475 1 3.50547e-09 
4861 1 -29.8044 22.728 1.73479 1 6.47132e-09 
5379 1 -28.0444 21.6475 0.345564 1 5.25361e-09 
5381 1 -26.2844 22.7281 1.73488 1 4.93948e-09 
5899 1 -24.5243 21.6476 0.34566 1 8.22607e-09 
5901 1 -22.7643 22.7282 1.73496 1 1.50965e-08 
6419 1 -21.0042 21.6478 0.345731 1 5.63913e-08 
6421 1 -19.2441 22.7284 1.73502 1 1.3754e-07 
6939 1 -17.4841 21.6479 0.345781 1 4.86182e-07 
6941 1 -15.724 22.7288 1.73524 1 2.83775e-06 
7459 1 -13.9643 21.6475 0.34605 1 9.882e-06 
7461 1 -12.2054 22.729 1.73654 1 4.87238e-05 
7979 1 -10.4454 21.6463 0.34864 1 0.000243354 
7981 1 -8.68969 22.7348 1.74149 1 0.00138013 
8499 1 -6.92502 21.6477 0.368358 1 0.00536103 
8501 1 -5.14024 22.7636 1.77545 1 0.0369899 
9019 1 -3.3856 21.6034 0.440317 1 0.0913019 
9020 1 -3.31166 24.0784 0.693441 1 0.119931 
9021 1 -1.53505 22.7439 1.93515 1 0.306792 
9147 2 0.239691 21.4651 0.792877 5 1.24142 
9148 2 0.232764 24.0054 0.726021 1 0.116817 
9456 2 2.0244 22.813 2.08792 1 0.210446 
9457 2 3.87518 21.521 1.08193 1 0.060563 
9458 2 3.81702 23.9753 0.781928 1 0.0522406 
9976 2 5.63527 22.8813 2.17145 1 0.00985709 
9977 2 7.39576 21.4929 1.10729 1 0.000988369 
9978 2 7.40081 23.9646 0.80122 1 0.002553 
10496 2 9.15594 22.8775 2.19134 1 0.000244164 
10497 2 10.9129 21.4903 1.11245 1 4.82392e-05 
10498 2 10.9131 23.9612 0.803999 1 4.66971e-05 
11016 2 12.6722 22.8796 2.19433 1 1.06734e-05 
11017 2 14.432 21.4909 1.11442 1 2.42717e-06 
11018 2 14.4317 23.9609 0.805711 1 3.07803e-06 
11536 2 16.1919 22.8801 2.19528 1 6.66445e-07 
11537 2 17.952 21.491 1.11502 1 1.52945e-07 
11538 2 17.952 23.9608 0.80628 1 1.0081e-07 
12056 2 19.712 22.8802 2.19563 1 3.05368e-08 
12057 2 21.472 21.491 1.1152 1 1.73207e-08 
12058 2 21.4721 23.9608 0.806455 1 2.29228e-08 
12576 2 23.2321 22.8802 2.19575 1 1.87421e-08 
12577 2 24.9921 21.491 1.11526 1 6.95259e-09 
12578 2 24.9921 23.9608 0.806525 1 4.6553e-09 
222 4 -61.4845 25.1977 2.04334 5 18.5856 
700 4 -59.7245 24.1172 0.65408 1 1.00003e-16 
732 4 -59.7245 26.587 0.962805 1 2.88311e-21 
705 4 -57.9645 25.1977 2.04334 1 4.15932e-22 
1220 4 -56.2045 24.1172 0.65408 1 1.00003e-16 
1225 4 -54.4445 25.1977 2.04334 1 4.15932e-22 
1252 4 -56.2045 26.587 0.962805 1 2.88311e-21 
1740 4 -52.6845 24.1172 0.65408 1 9.73745e-10 
1772 4 -52.6845 26.587 0.962805 1 1.48843e-09 
1745 1 -50.9245 25.1977 2.04334 1 1.56185e-09 
2260 1 -49.1645 24.1171 0.654079 1 3.14383e-09 
2292 1 -49.1645 26.5869 0.962808 1 5.72469e-09 
2265 1 -47.4045 25.1977 2.04333 1 2.23546e-09 
2780 1 -45.6445 24.1171 0.654058 1 7.30993e-10 
2785 1 -43.8845 25.1977 2.04331 1 2.79899e-09 
2812 1 -45.6445 26.5869 0.962783 1 1.98633e-09 
3300 1 -42.1245 24.1171 0.654037 1 6.13982e-09 
3332 1 -42.1245 26.5869 0.962779 1 1.53802e-09 
3305 1 -40.3645 25.1977 2.04332 1 5.33707e-09 
3820 1 -38.6045 24.1171 0.654086 1 4.8171e-09 
3852 1 -38.6045 26.5869 0.962808 1 5.2746e-09 
3825 1 -36.8445 25.1977 2.04336 1 1.11365e-09 
4340 1 -35.0845 24.1172 0.654133 1 1.37405e-09 
4345 1 -33.3244 25.1977 2.04344 1 2.0673e-09 
4372 1 -35.0844 26.5869 0.962866 1 5.55886e-09 
4860 1 -31.5644 24.1172 0.654218 1 2.81254e-09 
4892 1 -31.5644 26.587 0.962937 1 1.54175e-09 
4865 1 -29.8044 25.1978 2.04352 1 1.80503e-09 
5380 1 -28.0444 24.1173 0.654298 1 4.75581e-09 
5412 1 -28.0444 26.5871 0.963011 1 5.4433e-09 
5385 1 -26.2844 25.1979 2.0436 1 4.95514e-09 
5900 1 -24.5244 24.1174 0.65438 1 6.42887e-09 
5905 1 -22.7643 25.198 2.04367 1 2.76117e-08 
5932 1 -24.5244 26.5872 0.963088 1 5.63319e-09 
6420 1 -21.0042 24.1175 0.654468 1 3.60182e-08 
6452 1 -21.0043 26.5873 0.963134 1 4.42607e-08 
6425 1 -19.2441 25.1982 2.04368 1 1.07399e-07 
6940 1 -17.484 24.1178 0.654491 1 6.07787e-07 
6972 1 -17.4841 26.5876 0.962979 1 3.62714e-07 
6945 1 -15.7238 25.1988 2.04357 1 3.02915e-06 
7460 1 -13.964 24.118 0.654469 1 1.31896e-05 
7492 1 -13.9638 26.5883 0.962166 1 1.16152e-05 
7465 1 -12.2051 25.2005 2.04333 1 4.6462e-05 
7980 1 -10.4484 24.1174 0.654806 1 0.000378014 
8012 1 -10.446 26.5893 0.959184 1 0.00030821 
7985 1 -8.69277 25.2033 2.03993 1 0.00254694 
8500 1 -6.91791 24.1192 0.668042 1 0.00821169 
8505 1 -5.10894 25.2226 2.0291 1 0.0522856 
8532 1 -6.92228 26.5745 0.951351 1 0.00940646 
9052 1 -3.31798 26.579 0.857821 1 0.184554 
9025 1 -1.5247 25.2785 1.99903 1 0.116865 
9169 2 0.246457 26.5344 0.663074 1 0.25097 
9502 2 2.01975 25.311 1.92613 1 0.119928 
9500 2 3.84348 26.4347 0.533578 1 0.0332926 
10022 2 5.62596 25.3364 1.88533 1 0.00820726 
10020 2 7.39425 26.4329 0.504095 1 0.00133818 
10540 2 10.9124 26.4324 0.497642 1 6.751e-05 
10542 2 9.15644 25.3497 1.88712 1 0.000378059 
11062 2 12.6719 25.35 1.88653 1 1.33713e-05 
11060 2 14.4318 26.4308 0.497488 1 2.01098e-06 
11582 2 16.1919 25.3499 1.88674 1 6.0157e-07 
11580 2 17.9521 26.4305 0.497668 1 1.0807e-07 
12102 2 19.7121 25.35 1.88695 1 2.81937e-08 
12100 2 21.4721 26.4305 0.49777 1 1.26355e-08 
12622 2 23.2321 25.35 1.88704 1 8.09634e-09 
12620 2 24.9921 26.4306 0.497814 1 3.17856e-09 
236 4 -61.4845 27.6675 2.35206 5 18.5856 
733 4 -59.7245 29.0568 1.27153 1 4.00001e-16 
734 4 -57.9645 27.6675 2.35206 1 4.07817e-22 
1253 4 -56.2045 29.0568 1.27153 1 4.00001e-16 
1254 4 -54.4445 27.6675 2.35206 1 4.07817e-22 
1773 4 -52.6845 29.0568 1.27153 1 1.69918e-09 
1774 1 -50.9245 27.6675 2.35206 1 2.55844e-09 
2293 1 -49.1645 29.0567 1.27153 1 4.81852e-09 
2294 1 -47.4045 27.6675 2.35206 1 4.61306e-09 
2813 1 -45.6445 29.0567 1.27152 1 3.86208e-09 
2814 1 -43.8845 27.6675 2.35204 1 2.5864e-09 
3333 1 -42.1245 29.0567 1.27152 1 4.03704e-09 
3334 1 -40.3645 27.6674 2.35206 1 1.97247e-09 
3853 1 -38.6045 29.0567 1.27155 1 3.3311e-09 
3854 1 -36.8445 27.6675 2.3521 1 1.49608e-09 
4373 1 -35.0845 29.0567 1.27159 1 5.7138e-09 
4374 1 -33.3244 27.6675 2.35216 1 2.12922e-09 
4893 1 -31.5644 29.0568 1.27164 1 1.60317e-09 
4894 1 -29.8044 27.6676 2.35223 1 9.29248e-10 
5413 1 -28.0444 29.0569 1.27173 1 3.15918e-09 
5414 1 -26.2844 27.6677 2.3523 1 4.47318e-09 
5933 1 -24.5244 29.057 1.27179 1 5.43606e-09 
5934 1 -22.7643 27.6678 2.35236 1 1.51549e-08 
6453 1 -21.0043 29.0571 1.27181 1 2.35471e-08 
6454 1 -19.2442 27.668 2.3523 1 1.10429e-07 
6973 1 -17.4842 29.0573 1.27165 1 5.64787e-07 
6974 1 -15.724 27.6686 2.352 1 1.75681e-06 
7493 1 -13.9638 29.0578 1.27116 1 1.10858e-05 
7494 1 -12.204 27.6708 2.35092 1 5.17832e-05 
8013 1 -10.4424 29.0585 1.27014 1 0.000243186 
8014 1 -8.684 27.6744 2.34465 1 0.00116576 
8533 1 -6.92073 29.055 1.26794 1 0.00495633 
8534 1 -5.16322 27.6737 2.31871 1 0.0498194 
9053 1 -3.44523 29.0415 1.26373 1 0.346023 
9054 1 -1.53768 27.8133 2.0549 5 1.22545 
9170 2 0.375282 29.0319 0.356914 5 3.70353 
9499 2 2.09908 27.7899 1.66186 1 0.0796868 
9501 2 3.87757 28.9171 0.212716 1 0.02369 