ITEM: TIMESTEP
0
ITEM: NUMBER OF ATOMS
17535
ITEM: BOX BOUNDS ss pp pp
-63.6307 128.512
0 30.1777
0 32.9266
ITEM: ATOMS id type x y z c_cna c_csd 
94 4 -63.6306 0.681735 0.14877 5 37.1712 
104 4 -63.2466 1.40025 2.50067 5 30.976 
105 4 -61.3263 0.681735 1.08953 1 5.99929e-16 
307 4 -59.0219 0.681735 2.03029 1 5.00008e-16 
308 4 -58.2537 2.11877 0.14877 1 1.00134e-15 
618 4 -55.9494 2.11877 1.08953 1 3.99529e-10 
660 1 -53.645 2.11879 2.0303 1 3.78328e-09 
1006 1 -51.7246 1.40032 0.619172 1 8.32183e-10 
1007 1 -49.4202 1.40038 1.55995 1 2.741e-09 
1353 1 -47.4999 0.68194 0.148831 1 2.6594e-09 
1393 1 -47.1158 1.40048 2.50073 1 1.98698e-09 
1394 1 -45.1955 0.682052 1.08959 1 1.54022e-09 
1738 1 -42.8911 0.682168 2.03034 1 1.76438e-09 
1739 1 -42.1229 2.11925 0.14882 1 4.56766e-09 
2086 1 -39.8185 2.11933 1.08959 1 9.21061e-10 
2128 1 -37.5142 2.1194 2.03036 1 7.89443e-10 
2476 1 -35.5938 1.40095 0.619225 1 1.41142e-09 
2477 1 -33.2894 1.40103 1.56001 1 1.8896e-09 
2823 1 -31.3691 0.682592 0.148874 1 2.40851e-09 
2863 1 -30.985 1.40113 2.50078 1 2.32926e-09 
2864 1 -29.0647 0.682689 1.08968 1 2.72441e-09 
3208 1 -26.7603 0.682792 2.03051 1 1.65142e-09 
3209 1 -25.9921 2.11985 0.149022 1 1.78794e-09 
3556 1 -23.6877 2.11994 1.08988 1 2.43189e-09 
3598 1 -21.3833 2.12001 2.03075 1 8.74513e-09 
3946 1 -19.4629 1.40155 0.619715 1 1.03559e-08 
3947 1 -17.1585 1.40162 1.56063 1 1.04184e-07 
4293 1 -15.2384 0.683017 0.149536 1 1.88209e-06 
4333 1 -14.8541 1.40171 2.50161 1 1.01221e-06 
4334 1 -12.9344 0.682896 1.0903 1 1.60672e-05 
4678 1 -10.6311 0.682596 2.0307 1 0.000133069 
4679 1 -9.85954 2.11965 0.150811 1 8.14435e-05 
5024 1 -7.55217 2.11961 1.09298 1 0.000577669 
5066 1 -5.24001 2.12667 2.03637 1 0.00514798 
5384 1 -3.31972 1.40613 0.637805 1 0.0573783 
5385 1 -1.0003 1.40454 1.65193 5 3.73446 
5794 2 1.39154 1.4624 1.12716 1 0.366729 
5793 2 3.28892 0.718272 2.51527 1 0.0281046 
5796 2 3.67513 1.45393 0.153342 1 0.016683 
5872 2 5.60011 0.734373 1.5661 1 0.00199821 
5879 2 7.91061 0.735636 0.625502 1 0.000241816 
6048 2 8.68479 2.17266 2.50485 1 0.000349724 
6058 2 9.83587 0.0169384 2.03488 1 0.000133927 
6059 2 10.9873 2.17233 1.56494 1 4.44016e-05 
6060 2 12.1391 0.0166918 1.09474 1 1.61288e-05 
6336 2 13.2911 2.17218 0.624516 1 5.47956e-06 
6342 2 14.4431 0.0165804 0.15423 1 1.94931e-06 
6338 2 15.211 1.45348 2.0359 1 3.08872e-07 
6683 2 19.4357 0.73504 2.50636 1 1.34533e-08 
6684 2 17.5154 1.45351 1.09518 1 4.27888e-08 
6686 2 19.8198 1.45354 0.154474 1 9.98483e-09 
7045 2 21.7402 0.735079 1.56565 1 7.49217e-09 
7052 2 24.0446 0.735166 0.62499 1 3.74198e-09 
7407 2 24.8127 2.17224 2.50654 1 4.83106e-09 
7417 2 25.9649 0.0167562 2.03622 1 7.99473e-09 
7418 2 27.1171 2.1724 1.5659 1 2.33466e-09 
7419 2 28.2693 0.0169357 1.09559 1 2.82606e-09 
7782 2 29.4215 2.17259 0.625272 1 2.36579e-09 
7784 2 31.3419 1.45425 2.03654 1 6.41684e-09 
7788 2 30.5738 0.0171547 0.154963 1 2.65832e-09 
92 4 -63.6306 4.99284 0.14877 5 37.1712 
95 4 -62.4784 2.83729 0.61915 5 6.1952 
279 4 -61.3263 4.99284 1.08953 1 7.99921e-16 
304 4 -59.0219 4.99284 2.03029 1 7.00001e-16 
306 4 -60.1741 2.83729 1.55991 1 1.29984e-15 
309 4 -57.8697 2.83729 2.50067 1 1.49988e-15 
617 4 -57.1016 4.27432 0.61915 1 9.99759e-16 
619 4 -54.7972 4.27432 1.55991 1 4.34416e-09 
966 1 -52.8768 3.55584 0.148785 1 2.63979e-09 
1002 1 -52.4928 4.27436 2.50068 1 2.26411e-09 
1004 1 -50.5724 3.55591 1.08957 1 1.95604e-09 
1349 1 -48.268 3.55597 2.03035 1 5.50799e-09 
1350 1 -47.4999 4.99304 0.148831 1 2.68518e-09 
1354 1 -46.3477 2.83755 0.619211 1 6.04708e-10 
1697 1 -45.1955 4.99315 1.08959 1 1.46335e-09 
1737 1 -44.0433 2.83766 1.55996 1 9.24757e-10 
1735 1 -42.8911 4.99327 2.03034 1 1.78025e-09 
1740 1 -41.7389 2.83777 2.50072 1 1.56231e-09 
2085 1 -40.9707 4.27484 0.619203 1 1.85063e-09 
2087 1 -38.6663 4.27491 1.55997 1 2.06926e-10 
2436 1 -36.746 3.55646 0.14884 1 1.53795e-09 
2472 1 -36.362 4.27498 2.50074 1 1.8628e-09 
2474 1 -34.4416 3.55654 1.08961 1 1.00294e-09 
2819 1 -32.1372 3.55663 2.03039 1 1.38951e-09 
2820 1 -31.3691 4.99369 0.148875 1 1.93973e-09 
2824 1 -30.2169 2.8382 0.619277 1 1.87658e-09 
3167 1 -29.0647 4.99379 1.08967 1 3.01249e-09 
3205 1 -26.7603 4.99389 2.03051 1 1.53452e-09 
3207 1 -27.9125 2.83829 1.56009 1 4.39469e-09 
3210 1 -25.6081 2.83839 2.50094 1 3.29513e-09 
3555 1 -24.8399 4.27545 0.619444 1 1.93271e-09 
3557 1 -22.5355 4.27553 1.56031 1 2.75516e-09 
3906 1 -20.6152 3.55708 0.149272 1 5.92848e-09 
3942 1 -20.2311 4.27559 2.5012 1 1.44164e-08 
3944 1 -18.3107 3.55714 1.09018 1 4.16541e-08 
4289 1 -16.0063 3.55721 2.03112 1 3.28497e-07 
4290 1 -15.2384 4.99412 0.149535 1 1.87909e-06 
4294 1 -14.0863 2.83852 0.619947 1 5.40601e-06 
4637 1 -12.9344 4.994 1.0903 1 1.60836e-05 
4675 1 -10.6311 4.9937 2.0307 1 0.00013299 
4677 1 -11.7826 2.83834 1.56062 1 4.4082e-05 
4680 1 -9.48006 2.83794 2.50081 1 0.000347862 
5023 1 -8.7059 4.27493 0.621548 1 0.000240013 
5025 1 -6.39546 4.27607 1.56243 1 0.00197638 
5344 1 -4.47054 3.55652 0.149937 1 0.0164481 
5380 1 -4.08432 4.29203 2.51179 1 0.027624 
5382 1 -2.18685 3.54832 1.1236 1 0.360385 
5788 2 0.204536 3.60545 1.65396 5 3.72372 
5795 2 2.52471 3.60429 0.641266 1 0.0574918 
5861 2 3.28891 5.02937 2.51527 1 0.0281046 
5875 2 4.44476 2.88369 2.03995 1 0.00518623 
5876 2 5.60011 5.04547 1.5661 1 0.00199805 
5877 2 6.75688 2.89089 1.0968 1 0.000579944 
6052 2 7.91061 5.04674 0.625502 1 0.000241794 
6061 2 9.06425 2.89096 0.154914 1 8.24209e-05 
6054 2 9.83587 4.32804 2.03488 1 0.000133967 
6339 2 12.1391 4.32779 1.09474 1 1.61174e-05 
6337 2 14.0588 3.60899 2.50627 1 9.5783e-07 
6341 2 14.4431 4.32768 0.154229 1 1.95407e-06 
6676 2 16.3632 3.60906 1.56553 1 9.97379e-08 
6685 2 18.6676 3.60907 0.624824 1 1.79056e-08 
7034 2 19.4357 5.04614 2.50636 1 1.30614e-08 
7048 2 20.588 2.8906 2.03601 1 7.12792e-09 
7049 2 21.7402 5.04618 1.56565 1 7.30825e-09 
7050 2 22.8924 2.89066 1.09532 1 7.09027e-09 
7411 2 24.0446 5.04627 0.62499 1 3.71231e-09 
7413 2 25.9649 4.32786 2.03622 1 7.5179e-09 
7420 2 25.1968 2.89078 0.154662 1 4.15777e-09 
7785 2 28.2693 4.32804 1.09559 1 3.13722e-09 
7783 2 30.1897 3.60969 2.50684 1 4.52136e-09 
7787 2 30.5738 4.32826 0.154964 1 2.24753e-09 
93 4 -63.2466 5.71135 2.50067 5 30.976 
278 4 -62.4784 7.14839 0.61915 5 6.1952 
280 4 -60.1741 7.14839 1.55991 1 1.00004e-15 
581 4 -58.2537 6.42987 0.14877 1 7.0024e-16 
613 4 -57.8697 7.14839 2.50067 1 1.20008e-15 
615 4 -55.9494 6.42987 1.08953 1 4.11183e-10 
962 1 -53.645 6.42989 2.0303 1 3.67452e-09 
963 1 -52.8768 7.86694 0.148785 1 2.76373e-09 
967 1 -51.7246 5.71142 0.619172 1 8.88782e-10 
1312 1 -50.5724 7.86701 1.08957 1 2.00251e-09 
1348 1 -49.4202 5.71149 1.55996 1 2.64305e-09 
1346 1 -48.268 7.86708 2.03035 1 5.59045e-09 
1351 1 -47.1158 5.71158 2.50073 1 2.01579e-09 
1696 1 -46.3477 7.14865 0.61921 1 5.94507e-10 
1698 1 -44.0433 7.14876 1.55996 1 9.12419e-10 
2049 1 -42.1229 6.43035 0.14882 1 4.7477e-09 
2081 1 -41.7389 7.14887 2.50072 1 1.65245e-09 
2083 1 -39.8185 6.43043 1.08959 1 9.08561e-10 
2432 1 -37.5142 6.4305 2.03036 1 5.97827e-10 
2433 1 -36.746 7.86756 0.148841 1 1.63436e-09 
2437 1 -35.5938 5.71205 0.619224 1 1.59685e-09 
2782 1 -34.4416 7.86764 1.08961 1 1.03667e-09 
2816 1 -32.1372 7.86773 2.03039 1 1.63667e-09 
2818 1 -33.2894 5.71213 1.56001 1 2.34705e-09 
2821 1 -30.985 5.71223 2.50078 1 2.38301e-09 
3166 1 -30.2169 7.1493 0.619278 1 1.78524e-09 
3168 1 -27.9125 7.1494 1.56009 1 4.6542e-09 
3519 1 -25.9921 6.43096 0.149022 1 1.91908e-09 
3551 1 -25.6081 7.14949 2.50094 1 3.2617e-09 
3553 1 -23.6877 6.43105 1.08988 1 2.63651e-09 
3902 1 -21.3833 6.43111 2.03075 1 8.54037e-09 
3903 1 -20.6152 7.86818 0.14927 1 6.94061e-09 
3907 1 -19.4629 5.71265 0.619716 1 1.03581e-08 
4252 1 -18.3107 7.86824 1.09018 1 4.0432e-08 
4286 1 -16.0063 7.86831 2.03112 1 3.33286e-07 
4288 1 -17.1585 5.71272 1.56063 1 1.02759e-07 
4291 1 -14.8541 5.71281 2.50161 1 1.02161e-06 
4636 1 -14.0863 7.14963 0.619947 1 5.42228e-06 
4638 1 -11.7826 7.14944 1.56062 1 4.40322e-05 
4987 1 -9.85954 6.43076 0.150811 1 8.14074e-05 
5019 1 -9.48006 7.14904 2.50081 1 0.000347981 
5021 1 -7.55217 6.43071 1.09298 1 0.000577736 
5340 1 -5.24001 6.43777 2.03637 1 0.00514764 
5341 1 -4.47054 7.86762 0.149938 1 0.0164506 
5345 1 -3.31972 5.71724 0.637807 1 0.0573805 
5591 1 -2.18685 7.85942 1.1236 1 0.360384 
5623 1 -1.00031 5.71563 1.65194 5 3.73446 
5791 2 0.204542 7.91656 1.65397 5 3.72373 
5792 2 1.39155 5.7735 1.12716 1 0.366723 
5865 2 2.52471 7.91539 0.641266 1 0.0574941 
5867 2 4.44476 7.19479 2.03995 1 0.005186 
5878 2 3.67513 5.76503 0.153343 1 0.0166852 
6055 2 6.75688 7.20199 1.0968 1 0.000579993 
6053 2 8.68479 6.48376 2.50486 1 0.000349652 
6057 2 9.06425 7.20207 0.154914 1 8.24002e-05 
6327 2 10.9873 6.48343 1.56494 1 4.44277e-05 
6340 2 13.2911 6.48328 0.624516 1 5.47204e-06 
6661 2 14.0588 7.92009 2.50626 1 9.61501e-07 
6679 2 15.211 5.76458 2.0359 1 3.07804e-07 
6680 2 16.3632 7.92016 1.56554 1 9.88428e-08 
6681 2 17.5154 5.76462 1.09518 1 4.25831e-08 
7038 2 18.6676 7.92018 0.624823 1 1.84432e-08 
7040 2 20.588 7.2017 2.03601 1 7.13615e-09 
7051 2 19.8198 5.76464 0.154475 1 1.00461e-08 
7412 2 24.8127 6.48334 2.50654 1 4.93002e-09 
7414 2 22.8924 7.20177 1.09532 1 7.07057e-09 
7416 2 25.1968 7.20188 0.154662 1 3.99931e-09 
7773 2 27.1171 6.4835 1.5659 1 2.10448e-09 
7786 2 29.4216 6.4837 0.625271 1 2.80181e-09 
8130 2 30.1897 7.92079 2.50684 1 4.25051e-09 
8148 2 31.3419 5.76536 2.03653 1 6.86627e-09 
264 4 -63.6306 9.30394 0.14877 5 37.1712 
274 4 -63.2466 10.0225 2.50067 5 30.976 
276 4 -61.3263 9.30394 1.08953 1 1.09693e-15 
577 4 -59.0219 9.30394 2.03029 1 9.97005e-16 
578 4 -58.2537 10.741 0.14877 1 9.01443e-16 
582 4 -57.1016 8.58542 0.61915 1 1.20156e-15 
929 4 -55.9494 10.741 1.08953 1 4.00399e-10 
959 1 -53.645 10.741 2.0303 1 3.8181e-09 
961 4 -54.7972 8.58542 1.55991 1 4.32913e-09 
964 1 -52.4928 8.58546 2.50068 1 2.27324e-09 
1311 1 -51.7246 10.0225 0.619171 1 8.63583e-10 
1313 1 -49.4202 10.0226 1.55996 1 2.92953e-09 
1664 1 -47.4999 9.30414 0.148831 1 2.76128e-09 
1692 1 -47.1158 10.0227 2.50073 1 1.72045e-09 
1694 1 -45.1955 9.30426 1.08959 1 1.2848e-09 
2045 1 -42.8911 9.30437 2.03034 1 1.94944e-09 
2046 1 -42.1229 10.7414 0.14882 1 4.54832e-09 
2050 1 -40.9707 8.58594 0.619203 1 1.75368e-09 
2399 1 -39.8185 10.7415 1.08959 1 9.17142e-10 
2431 1 -38.6663 8.58602 1.55997 1 2.16352e-10 
2429 1 -37.5142 10.7416 2.03036 1 7.90895e-10 
2434 1 -36.362 8.58609 2.50074 1 2.12343e-09 
2781 1 -35.5938 10.0232 0.619225 1 1.30625e-09 
2783 1 -33.2894 10.0232 1.56001 1 1.7422e-09 
3134 1 -31.3691 9.3048 0.148874 1 2.47297e-09 
3162 1 -30.985 10.0233 2.50078 1 2.17675e-09 
3164 1 -29.0647 9.30489 1.08968 1 2.64298e-09 
3515 1 -26.7603 9.305 2.03051 1 1.56906e-09 
3516 1 -25.9921 10.7421 0.149022 1 1.8248e-09 
3520 1 -24.8399 8.58655 0.619445 1 1.80429e-09 
3869 1 -23.6877 10.7421 1.08988 1 2.35952e-09 
3899 1 -21.3833 10.7422 2.03075 1 8.50323e-09 
3901 1 -22.5355 8.58663 1.56031 1 2.73357e-09 
3904 1 -20.2311 8.58669 2.5012 1 1.5367e-08 
4251 1 -19.4629 10.0238 0.619715 1 1.064e-08 
4253 1 -17.1585 10.0238 1.56063 1 1.03401e-07 
4604 1 -15.2384 9.30522 0.149536 1 1.8813e-06 
4632 1 -14.8541 10.0239 2.50161 1 1.01407e-06 
4634 1 -12.9344 9.3051 1.0903 1 1.60727e-05 
4983 1 -10.6311 9.3048 2.0307 1 0.000133058 
4984 1 -9.85954 10.7419 0.150811 1 8.14399e-05 
4988 1 -8.7059 8.58604 0.621547 1 0.00024007 
5307 1 -7.55217 10.7418 1.09298 1 0.000577685 
5339 1 -6.39546 8.58717 1.56243 1 0.00197625 
5337 1 -5.24001 10.7489 2.03637 1 0.00514827 
5342 1 -4.08432 8.60313 2.51179 1 0.0276242 
5590 1 -3.31972 10.0283 0.637808 1 0.0573758 
5592 1 -1.0003 10.0267 1.65194 5 3.73445 
5868 2 1.39154 10.0846 1.12717 1 0.366725 
5866 2 3.28892 9.34048 2.51527 1 0.0281045 
5870 2 3.67513 10.0761 0.153343 1 0.0166841 
6039 2 5.60011 9.35658 1.5661 1 0.00199825 
6056 2 7.91062 9.35784 0.625502 1 0.000241781 
6308 2 8.68479 10.7949 2.50485 1 0.000349705 
6330 2 9.83587 8.63914 2.03488 1 0.000133881 
6331 2 10.9873 10.7945 1.56494 1 4.44199e-05 
6332 2 12.1391 8.6389 1.09474 1 1.61473e-05 
6665 2 13.2911 10.7944 0.624516 1 5.47508e-06 
6682 2 14.4431 8.63878 0.15423 1 1.94445e-06 
6667 2 15.211 10.0757 2.0359 1 3.0786e-07 
7039 2 19.4357 9.35724 2.50636 1 1.33493e-08 
7041 2 17.5154 10.0757 1.09518 1 4.29732e-08 
7043 2 19.8198 10.0757 0.154474 1 9.96673e-09 
7398 2 21.7402 9.35728 1.56565 1 7.43766e-09 
7415 2 24.0446 9.35737 0.62499 1 3.91818e-09 
7754 2 24.8127 10.7944 2.50654 1 4.79304e-09 
7776 2 25.9649 8.63896 2.03622 1 7.63652e-09 
7777 2 27.1171 10.7946 1.5659 1 2.33848e-09 
7778 2 28.2693 8.63914 1.09559 1 2.89809e-09 
8134 2 29.4216 10.7948 0.625272 1 2.36181e-09 
8136 2 31.3419 10.0765 2.03653 1 6.67073e-09 
8151 2 30.5738 8.63936 0.154963 1 2.48969e-09 
262 4 -63.6306 13.615 0.14877 5 37.1712 
265 4 -62.4784 11.4595 0.61915 5 12.3904 
551 4 -61.3263 13.615 1.08953 1 8.9992e-16 
574 4 -59.0219 13.615 2.03029 1 8e-16 
576 4 -60.1741 11.4595 1.55991 1 8.00042e-16 
579 4 -57.8697 11.4595 2.50067 1 1.00008e-15 
928 4 -57.1016 12.8965 0.61915 1 8.9976e-16 
930 4 -54.7972 12.8965 1.55991 1 4.35689e-09 
1283 1 -52.8768 12.178 0.148785 1 2.63009e-09 
1307 1 -52.4928 12.8966 2.50068 1 2.18257e-09 
1309 1 -50.5724 12.1781 1.08957 1 1.95237e-09 
1660 1 -48.268 12.1782 2.03035 1 5.40126e-09 
1661 1 -47.4999 13.6152 0.148831 1 2.56555e-09 
1665 1 -46.3477 11.4598 0.619211 1 6.74431e-10 
2016 1 -45.1955 13.6154 1.08959 1 1.64686e-09 
2044 1 -44.0433 11.4599 1.55996 1 9.35911e-10 
2042 1 -42.8911 13.6155 2.03034 1 1.65436e-09 
2047 1 -41.7389 11.46 2.50072 1 1.52562e-09 
2398 1 -40.9707 12.897 0.619203 1 1.89243e-09 
2400 1 -38.6663 12.8971 1.55997 1 2.0236e-10 
2753 1 -36.746 12.1787 0.14884 1 1.66194e-09 
2777 1 -36.362 12.8972 2.50074 1 1.87507e-09 
2779 1 -34.4416 12.1787 1.08961 1 9.23696e-10 
3130 1 -32.1372 12.1788 2.03039 1 1.54164e-09 
3131 1 -31.3691 13.6159 0.148875 1 1.99226e-09 
3135 1 -30.2169 11.4604 0.619277 1 1.94745e-09 
3486 1 -29.0647 13.616 1.08967 1 2.99721e-09 
3512 1 -26.7603 13.6161 2.03051 1 1.59044e-09 
3514 1 -27.9125 11.4605 1.56009 1 4.35108e-09 
3517 1 -25.6081 11.4606 2.50094 1 3.26941e-09 
3868 1 -24.8399 12.8977 0.619444 1 2.01673e-09 
3870 1 -22.5355 12.8977 1.56031 1 2.7767e-09 
4223 1 -20.6152 12.1793 0.149271 1 6.19469e-09 
4247 1 -20.2311 12.8978 2.5012 1 1.4552e-08 
4249 1 -18.3107 12.1793 1.09018 1 4.10093e-08 
4600 1 -16.0063 12.1794 2.03112 1 3.29788e-07 
4601 1 -15.2384 13.6163 0.149535 1 1.8806e-06 
4605 1 -14.0863 11.4607 0.619947 1 5.41284e-06 
4954 1 -12.9344 13.6162 1.0903 1 1.60706e-05 
4980 1 -10.6311 13.6159 2.0307 1 0.000133032 
4982 1 -11.7826 11.4605 1.56062 1 4.40633e-05 
4985 1 -9.48006 11.4601 2.50081 1 0.000347885 
5306 1 -8.7059 12.8971 0.621547 1 0.000240029 
5308 1 -6.39546 12.8983 1.56243 1 0.00197644 
5562 1 -4.47054 12.1787 0.149939 1 0.0164482 
5586 1 -4.08432 12.9142 2.51179 1 0.0276236 
5588 1 -2.18685 12.1705 1.1236 1 0.360388 
5850 2 0.204542 12.2277 1.65397 5 3.72372 
5869 2 2.52471 12.2265 0.641267 1 0.057496 
6016 2 3.28891 13.6516 2.51526 1 0.0281044 
6042 2 4.44476 11.5059 2.03995 1 0.00518621 
6043 2 5.60011 13.6677 1.5661 1 0.00199807 
6044 2 6.75688 11.5131 1.0968 1 0.000579912 
6312 2 7.91061 13.6689 0.625501 1 0.000241799 
6333 2 9.06425 11.5132 0.154914 1 8.24253e-05 
6314 2 9.83588 12.9502 2.03488 1 0.00013401 
6668 2 12.1391 12.95 1.09474 1 1.61078e-05 
6666 2 14.0588 12.2312 2.50627 1 9.55399e-07 
6670 2 14.4431 12.9499 0.15423 1 1.95744e-06 
7021 2 16.3632 12.2313 1.56553 1 1.0012e-07 
7042 2 18.6676 12.2313 0.624824 1 1.79605e-08 
7375 2 19.4357 13.6683 2.50636 1 1.33468e-08 
7401 2 20.588 11.5128 2.03601 1 7.15816e-09 
7402 2 21.7402 13.6684 1.56565 1 7.38674e-09 
7403 2 22.8924 11.5129 1.09532 1 7.29099e-09 
7758 2 24.0446 13.6685 0.62499 1 3.67343e-09 
7760 2 25.9649 12.9501 2.03622 1 7.80192e-09 
7779 2 25.1968 11.513 0.154662 1 3.9111e-09 
8137 2 28.2693 12.9502 1.09559 1 2.97496e-09 
8135 2 30.1897 12.2319 2.50684 1 4.75636e-09 
8139 2 30.5738 12.9505 0.154963 1 2.4797e-09 
263 4 -63.2466 14.3336 2.50067 5 30.976 
550 4 -62.4784 15.7706 0.61915 5 12.3904 
552 4 -60.1741 15.7706 1.55991 1 1.10004e-15 
904 4 -58.2537 15.0521 0.14877 1 1.20024e-15 
924 4 -57.8697 15.7706 2.50067 1 1.30008e-15 
926 4 -55.9494 15.0521 1.08953 1 4.10613e-10 
1279 1 -53.645 15.0521 2.0303 1 3.65658e-09 
1284 1 -51.7246 14.3336 0.619172 1 8.53966e-10 
1659 1 -49.4202 14.3337 1.55995 1 2.59803e-09 
1662 1 -47.1158 14.3338 2.50073 1 2.24683e-09 
2015 1 -46.3477 15.7709 0.61921 1 5.92499e-10 
2017 1 -44.0433 15.771 1.55996 1 9.40574e-10 
2374 1 -42.1229 15.0526 0.14882 1 4.65091e-09 
2394 1 -41.7389 15.7711 2.50072 1 1.67267e-09 
2396 1 -39.8185 15.0526 1.08959 1 8.95277e-10 
2749 1 -37.5142 15.0527 2.03036 1 6.0425e-10 
2754 1 -35.5938 14.3343 0.619224 1 1.64105e-09 
3129 1 -33.2894 14.3343 1.56001 1 2.30981e-09 
3132 1 -30.985 14.3344 2.50078 1 2.4122e-09 
3485 1 -30.2169 15.7715 0.619278 1 1.74156e-09 
3487 1 -27.9125 15.7716 1.56009 1 4.65967e-09 
3844 1 -25.9921 15.0532 0.149022 1 1.87705e-09 
3864 1 -25.6081 15.7717 2.50094 1 3.26808e-09 
3866 1 -23.6877 15.0533 1.08988 1 2.66484e-09 
4219 1 -21.3833 15.0533 2.03075 1 8.64429e-09 
4224 1 -19.4629 14.3349 0.619716 1 1.00494e-08 
4599 1 -17.1585 14.3349 1.56063 1 1.03591e-07 
4602 1 -14.8541 14.335 2.50161 1 1.01649e-06 
4953 1 -14.0863 15.7718 0.619948 1 5.41462e-06 
4955 1 -11.7826 15.7716 1.56062 1 4.40528e-05 
5282 1 -9.85954 15.053 0.150811 1 8.14305e-05 
5302 1 -9.48006 15.7712 2.50081 1 0.000347982 
5304 1 -7.55217 15.0529 1.09298 1 0.000577706 
5558 1 -5.24001 15.06 2.03637 1 0.0051481 
5563 1 -3.31972 14.3394 0.637807 1 0.0573818 
5734 1 -1.0003 14.3378 1.65194 5 3.73446 
5854 2 1.39155 14.3957 1.12717 1 0.366731 
6022 2 4.44476 15.817 2.03995 1 0.00518636 
6045 2 3.67513 14.3872 0.153344 1 0.0166847 
6315 2 6.75688 15.8242 1.0968 1 0.000579946 
6313 2 8.68479 15.106 2.50486 1 0.000349692 
6317 2 9.06425 15.8243 0.154914 1 8.24025e-05 
6644 2 10.9873 15.1056 1.56494 1 4.44101e-05 
6669 2 13.2911 15.1055 0.624516 1 5.47752e-06 
7024 2 15.211 14.3868 2.0359 1 3.08884e-07 
7026 2 17.5154 14.3868 1.09518 1 4.23693e-08 
7381 2 20.588 15.8239 2.03601 1 7.08758e-09 
7404 2 19.8198 14.3868 0.154474 1 9.9271e-09 
7759 2 24.8127 15.1055 2.50654 1 5.09765e-09 
7761 2 22.8924 15.824 1.09532 1 6.92203e-09 
7763 2 25.1968 15.8241 0.154662 1 4.25357e-09 
8113 2 27.1171 15.1057 1.5659 1 2.12255e-09 
8138 2 29.4215 15.1059 0.625271 1 2.733e-09 
8494 2 31.3419 14.3876 2.03653 1 6.6084e-09 
536 4 -63.6306 17.9261 0.14877 5 37.1712 
546 4 -63.2466 18.6447 2.50067 5 30.976 
548 4 -61.3263 17.9261 1.08953 1 5.99921e-16 
900 4 -59.0219 17.9261 2.03029 1 5e-16 
905 4 -57.1016 17.2076 0.61915 1 6.9976e-16 
1278 4 -54.7972 17.2076 1.55991 1 4.31908e-09 
1280 1 -52.8768 16.4891 0.148785 1 2.7614e-09 
1281 1 -52.4928 17.2077 2.50068 1 2.3416e-09 
1634 1 -51.7246 18.6447 0.619171 1 9.39002e-10 
1635 1 -50.5724 16.4892 1.08957 1 2.14018e-09 
1636 1 -49.4202 18.6448 1.55996 1 2.89927e-09 
1657 1 -48.268 16.4893 2.03035 1 5.63439e-09 
1995 1 -47.4999 17.9263 0.148831 1 2.96202e-09 
2011 1 -47.1158 18.6449 2.50073 1 1.71371e-09 
2013 1 -45.1955 17.9265 1.08959 1 1.15736e-09 
2370 1 -42.8911 17.9266 2.03034 1 2.04635e-09 
2375 1 -40.9707 17.2081 0.619203 1 1.70638e-09 
2748 1 -38.6663 17.2082 1.55997 1 2.18989e-10 
2750 1 -36.746 16.4898 0.14884 1 1.50318e-09 
2751 1 -36.362 17.2083 2.50074 1 2.04179e-09 
3104 1 -35.5938 18.6454 0.619225 1 1.32439e-09 
3105 1 -34.4416 16.4898 1.08961 1 1.07639e-09 
3106 1 -33.2894 18.6454 1.56001 1 1.82472e-09 
3127 1 -32.1372 16.4899 2.03039 1 1.44618e-09 
3465 1 -31.3691 17.927 0.148875 1 2.32861e-09 
3481 1 -30.985 18.6455 2.50078 1 2.16318e-09 
3483 1 -29.0647 17.9271 1.08968 1 2.72489e-09 
3840 1 -26.7603 17.9272 2.03051 1 1.51213e-09 
3845 1 -24.8399 17.2088 0.619445 1 1.75893e-09 
4218 1 -22.5355 17.2088 1.56031 1 2.66776e-09 
4220 1 -20.6152 16.4904 0.149271 1 6.47016e-09 
4221 1 -20.2311 17.2089 2.5012 1 1.51473e-08 
4574 1 -19.4629 18.646 0.619715 1 1.07099e-08 
4575 1 -18.3107 16.4904 1.09018 1 4.11074e-08 
4576 1 -17.1585 18.646 1.56063 1 1.02497e-07 
4597 1 -16.0063 16.4905 2.03112 1 3.30951e-07 
4933 1 -15.2384 17.9274 0.149536 1 1.87821e-06 
4949 1 -14.8541 18.6461 2.50161 1 1.01883e-06 
4951 1 -12.9344 17.9273 1.0903 1 1.60818e-05 
5278 1 -10.6311 17.927 2.0307 1 0.000133013 
5283 1 -8.7059 17.2082 0.621548 1 0.00024006 
5557 1 -6.39546 17.2094 1.56243 1 0.00197643 
5559 1 -4.47054 16.4898 0.149938 1 0.0164509 
5560 1 -4.08432 17.2253 2.51179 1 0.0276236 
5713 1 -3.31972 18.6505 0.637808 1 0.0573722 
5714 1 -2.18685 16.4816 1.1236 1 0.360383 
5715 1 -1.0003 18.6489 1.65193 5 3.73447 
5853 2 0.20454 16.5388 1.65397 5 3.72373 
6023 2 1.39154 18.7068 1.12717 1 0.366722 
6020 2 2.52471 16.5376 0.641267 1 0.0574917 
6021 2 3.28891 17.9627 2.51526 1 0.0281045 
6025 2 3.67513 18.6983 0.153343 1 0.0166851 
6287 2 5.60011 17.9788 1.5661 1 0.00199828 
6316 2 7.91062 17.98 0.625502 1 0.000241772 
6647 2 9.83587 17.2613 2.03488 1 0.000133879 
6649 2 12.1391 17.2611 1.09474 1 1.61474e-05 
6994 2 14.0588 16.5423 2.50627 1 9.62297e-07 
7027 2 14.4431 17.261 0.15423 1 1.94439e-06 
7000 2 15.211 18.6979 2.0359 1 3.06621e-07 
7025 2 16.3632 16.5424 1.56554 1 9.87552e-08 
7379 2 18.6676 16.5424 0.624823 1 1.83324e-08 
7380 2 19.4357 17.9794 2.50636 1 1.31599e-08 
7382 2 17.5154 18.6979 1.09518 1 4.29729e-08 
7384 2 19.8198 18.6979 0.154474 1 9.9301e-09 
7733 2 21.7402 17.9795 1.56565 1 7.32561e-09 
7762 2 24.0446 17.9796 0.62499 1 3.97493e-09 
8116 2 25.9649 17.2612 2.03622 1 7.28694e-09 
8118 2 28.2693 17.2613 1.09559 1 3.04762e-09 
8464 2 30.1897 16.543 2.50684 1 4.12705e-09 
8470 2 31.3419 18.6987 2.03653 1 7.08373e-09 
8497 2 30.5738 17.2616 0.154964 1 2.27895e-09 
537 4 -62.4784 20.0817 0.61915 5 6.1952 
899 4 -60.1741 20.0817 1.55991 1 1.30004e-15 
901 4 -58.2537 19.3632 0.14877 1 1.00024e-15 
902 4 -57.8697 20.0817 2.50067 1 1.50008e-15 
1257 4 -57.1016 21.5187 0.61915 1 9.9976e-16 
1258 4 -55.9494 19.3632 1.08953 1 4.01428e-10 
1259 4 -54.7972 21.5187 1.55991 1 4.37568e-09 
1276 1 -53.645 19.3632 2.0303 1 3.83714e-09 
1618 1 -52.8768 20.8002 0.148785 1 2.62017e-09 
1630 1 -52.4928 21.5188 2.50068 1 2.09542e-09 
1632 1 -50.5724 20.8003 1.08957 1 1.90372e-09 
1991 1 -48.268 20.8004 2.03035 1 5.43574e-09 
1996 1 -46.3477 20.082 0.619211 1 6.9771e-10 
2369 1 -44.0433 20.0821 1.55996 1 9.07685e-10 
2371 1 -42.1229 19.3637 0.148819 1 4.68648e-09 
2372 1 -41.7389 20.0822 2.50072 1 1.5586e-09 
2727 1 -40.9707 21.5192 0.619203 1 1.88612e-09 
2728 1 -39.8185 19.3637 1.08959 1 9.41836e-10 
2729 1 -38.6663 21.5193 1.55997 1 2.09114e-10 
2746 1 -37.5142 19.3638 2.03036 1 7.42471e-10 
3088 1 -36.746 20.8009 0.14884 1 1.71093e-09 
3100 1 -36.362 21.5194 2.50074 1 1.92721e-09 
3102 1 -34.4416 20.8009 1.08961 1 9.21452e-10 
3461 1 -32.1372 20.801 2.03039 1 1.75044e-09 
3466 1 -30.2169 20.0826 0.619278 1 1.94956e-09 
3839 1 -27.9125 20.0827 1.56009 1 4.52737e-09 
3841 1 -25.9921 19.3643 0.149022 1 1.94105e-09 
3842 1 -25.6081 20.0828 2.50094 1 3.30897e-09 
4197 1 -24.8399 21.5199 0.619444 1 2.01192e-09 
4198 1 -23.6877 19.3644 1.08988 1 2.32213e-09 
4199 1 -22.5355 21.5199 1.56031 1 2.70068e-09 
4216 1 -21.3833 19.3644 2.03075 1 8.30598e-09 
4558 1 -20.6152 20.8015 0.149271 1 6.5473e-09 
4570 1 -20.2311 21.52 2.5012 1 1.49052e-08 
4572 1 -18.3107 20.8015 1.09018 1 4.03829e-08 
4929 1 -16.0063 20.8016 2.03112 1 3.3282e-07 
4934 1 -14.0863 20.0829 0.619948 1 5.42101e-06 
5277 1 -11.7826 20.0827 1.56062 1 4.40384e-05 
5279 1 -9.85954 19.3641 0.150812 1 8.14323e-05 
5280 1 -9.48006 20.0823 2.50081 1 0.000347903 
5536 1 -8.7059 21.5193 0.621547 1 0.000240048 
5537 1 -7.55217 19.364 1.09298 1 0.000577728 
5538 1 -6.39546 21.5205 1.56243 1 0.00197637 
5555 1 -5.24001 19.3711 2.03637 1 0.00514819 
5697 1 -4.47054 20.8009 0.149939 1 0.0164476 
5709 1 -4.08432 21.5364 2.51179 1 0.0276239 
5711 1 -2.18685 20.7927 1.1236 1 0.360391 
5993 2 0.204542 20.8499 1.65397 5 3.72371 
6024 2 2.52471 20.8487 0.641265 1 0.0574997 
6290 2 4.44476 20.1281 2.03995 1 0.00518622 
6292 2 6.75688 20.1353 1.0968 1 0.000579962 
6613 2 8.68479 19.4171 2.50485 1 0.000349659 
6650 2 9.06425 20.1354 0.154914 1 8.24243e-05 
6619 2 9.83587 21.5724 2.03488 1 0.000133973 
6648 2 10.9873 19.4167 1.56494 1 4.44286e-05 
7001 2 12.1391 21.5722 1.09474 1 1.61114e-05 
6998 2 13.2911 19.4166 0.624516 1 5.46925e-06 
6999 2 14.0588 20.8534 2.50627 1 9.55696e-07 
7003 2 14.4431 21.5721 0.15423 1 1.9547e-06 
7350 2 16.3632 20.8535 1.56554 1 1.00015e-07 
7383 2 18.6676 20.8535 0.624824 1 1.81215e-08 
7736 2 20.588 20.135 2.03601 1 7.14494e-09 
7738 2 22.8924 20.1351 1.09532 1 7.31878e-09 
8082 2 24.8127 19.4166 2.50654 1 4.7064e-09 
8088 2 25.9649 21.5723 2.03622 1 8.08141e-09 
8117 2 27.1171 19.4168 1.5659 1 2.30172e-09 
8119 2 25.1968 20.1352 0.154662 1 3.75654e-09 
8468 2 29.4216 19.417 0.625271 1 2.53831e-09 
8471 2 28.2693 21.5724 1.09559 1 2.86472e-09 
8469 2 30.1897 20.8541 2.50684 1 4.69244e-09 
8473 2 30.5738 21.5727 0.154963 1 2.64144e-09 
534 4 -63.6306 22.2372 0.14877 5 37.1712 
535 4 -63.2466 22.9558 2.50067 5 30.976 
882 4 -62.4784 24.3928 0.61915 5 6.1952 
883 4 -61.3263 22.2372 1.08953 1 7.99921e-16 
884 4 -60.1741 24.3928 1.55991 1 1.00004e-15 
897 4 -59.0219 22.2372 2.03029 1 7.00001e-16 
1245 4 -58.2537 23.6743 0.14877 1 7.0024e-16 
1253 4 -57.8697 24.3928 2.50067 1 1.20008e-15 
1255 4 -55.9494 23.6743 1.08953 1 4.06095e-10 
1614 1 -53.645 23.6743 2.0303 1 3.66616e-09 
1619 1 -51.7246 22.9558 0.619172 1 8.34665e-10 
1990 1 -49.4202 22.9559 1.55995 1 2.66658e-09 
1992 1 -47.4999 22.2375 0.14883 1 2.57602e-09 
1993 1 -47.1158 22.956 2.50073 1 2.21766e-09 
2352 1 -46.3477 24.3931 0.61921 1 6.33848e-10 
2353 1 -45.1955 22.2376 1.08959 1 1.76894e-09 
2354 1 -44.0433 24.3932 1.55996 1 9.22272e-10 
2367 1 -42.8911 22.2377 2.03034 1 1.65928e-09 
2715 1 -42.1229 23.6748 0.14882 1 4.55401e-09 
2723 1 -41.7389 24.3933 2.50072 1 1.64414e-09 
2725 1 -39.8185 23.6748 1.08959 1 9.17398e-10 
3084 1 -37.5142 23.6749 2.03036 1 6.71541e-10 
3089 1 -35.5938 22.9565 0.619224 1 1.57229e-09 
3460 1 -33.2894 22.9565 1.56001 1 2.13798e-09 
3462 1 -31.3691 22.2381 0.148875 1 2.20201e-09 
3463 1 -30.985 22.9566 2.50078 1 2.44257e-09 
3822 1 -30.2169 24.3937 0.619278 1 1.81464e-09 
3823 1 -29.0647 22.2382 1.08968 1 2.87949e-09 
3824 1 -27.9125 24.3938 1.56009 1 4.51551e-09 
3837 1 -26.7603 22.2383 2.03051 1 1.66402e-09 
4185 1 -25.9921 23.6754 0.149022 1 1.8033e-09 
4193 1 -25.6081 24.3939 2.50094 1 3.27557e-09 
4195 1 -23.6877 23.6755 1.08988 1 2.59141e-09 
4554 1 -21.3833 23.6755 2.03075 1 8.78265e-09 
4559 1 -19.4629 22.9571 0.619716 1 1.00254e-08 
4928 1 -17.1585 22.9571 1.56063 1 1.0436e-07 
4930 1 -15.2384 22.2385 0.149536 1 1.88148e-06 
4931 1 -14.8541 22.9572 2.50161 1 1.01251e-06 
5260 1 -14.0863 24.394 0.619948 1 5.40417e-06 
5261 1 -12.9344 22.2384 1.0903 1 1.60613e-05 
5262 1 -11.7826 24.3938 1.56062 1 4.40748e-05 
5275 1 -10.6311 22.2381 2.0307 1 0.000133047 
5524 1 -9.85954 23.6752 0.150811 1 8.14352e-05 
5532 1 -9.48006 24.3934 2.50081 1 0.000347876 
5534 1 -7.55217 23.6751 1.09298 1 0.000577726 
5693 1 -5.24001 23.6822 2.03637 1 0.00514778 
5698 1 -3.31972 22.9616 0.637807 1 0.0573826 
5770 1 -1.0003 22.96 1.65194 5 3.73445 
5997 2 1.39154 23.0179 1.12716 1 0.366731 
6252 2 3.28891 22.2738 2.51527 1 0.0281048 
6258 2 4.44476 24.4392 2.03995 1 0.00518615 
6293 2 3.67513 23.0094 0.153344 1 0.0166832 
6291 2 5.60011 22.2899 1.5661 1 0.00199813 
6620 2 6.75688 24.4464 1.0968 1 0.000579962 
6617 2 7.91061 22.2911 0.625502 1 0.000241823 
6618 2 8.68479 23.7282 2.50486 1 0.000349712 
6622 2 9.06425 24.4465 0.154914 1 8.2419e-05 
6965 2 10.9873 23.7278 1.56494 1 4.44006e-05 
7002 2 13.2911 23.7277 0.624516 1 5.47901e-06 
7353 2 15.211 23.009 2.0359 1 3.09283e-07 
7355 2 17.5154 23.009 1.09518 1 4.24674e-08 
7698 2 19.4357 22.2905 2.50636 1 1.34323e-08 
7704 2 20.588 24.4461 2.03601 1 7.13468e-09 
7737 2 21.7402 22.2906 1.56565 1 7.46558e-09 
7739 2 19.8198 23.0091 0.154474 1 9.93054e-09 
8086 2 24.0446 22.2907 0.62499 1 3.73633e-09 
8087 2 24.8127 23.7277 2.50654 1 5.06398e-09 
8089 2 22.8924 24.4462 1.09532 1 6.89618e-09 
8091 2 25.1968 24.4463 0.154662 1 4.3578e-09 
8435 2 27.1171 23.7279 1.5659 1 2.23615e-09 
8472 2 29.4215 23.7281 0.625271 1 2.52149e-09 
8823 2 31.3419 23.0098 2.03654 1 6.34537e-09 
874 4 -63.6306 26.5483 0.14877 5 37.1712 
878 4 -63.2466 27.2669 2.50067 5 30.976 
880 4 -61.3263 26.5483 1.08953 1 1.09992e-15 
1241 4 -59.0219 26.5483 2.03029 1 1e-15 
1246 4 -57.1016 25.8298 0.61915 1 1.19976e-15 
1613 4 -54.7972 25.8298 1.55991 1 4.31436e-09 
1615 1 -52.8768 25.1113 0.148785 1 2.70302e-09 
1616 1 -52.4928 25.8299 2.50068 1 2.36953e-09 
1977 1 -51.7246 27.2669 0.619171 1 9.55042e-10 
1978 1 -50.5724 25.1114 1.08957 1 2.01855e-09 
1979 1 -49.4202 27.267 1.55996 1 2.81372e-09 
1988 1 -48.268 25.1115 2.03035 1 5.59101e-09 
2344 1 -47.4999 26.5486 0.148831 1 2.84005e-09 
2348 1 -47.1158 27.2671 2.50073 1 1.78066e-09 
2350 1 -45.1955 26.5487 1.08959 1 1.22971e-09 
2711 1 -42.8911 26.5488 2.03034 1 1.95903e-09 
2716 1 -40.9707 25.8303 0.619203 1 1.78807e-09 
3083 1 -38.6663 25.8304 1.55997 1 2.19823e-10 
3085 1 -36.746 25.112 0.14884 1 1.45195e-09 
3086 1 -36.362 25.8305 2.50074 1 1.8926e-09 
3447 1 -35.5938 27.2676 0.619225 1 1.43383e-09 
3448 1 -34.4416 25.112 1.08961 1 1.08558e-09 
3449 1 -33.2894 27.2676 1.56001 1 2.09176e-09 
3458 1 -32.1372 25.1121 2.03039 1 1.35729e-09 
3814 1 -31.3691 26.5492 0.148875 1 2.09762e-09 
3818 1 -30.985 27.2677 2.50078 1 2.2416e-09 
3820 1 -29.0647 26.5493 1.08967 1 2.88845e-09 
4181 1 -26.7603 26.5494 2.03051 1 1.50585e-09 
4186 1 -24.8399 25.831 0.619444 1 1.83549e-09 
4553 1 -22.5355 25.831 1.56031 1 2.76553e-09 
4555 1 -20.6152 25.1126 0.149272 1 6.02154e-09 
4556 1 -20.2311 25.8311 2.5012 1 1.46891e-08 
4915 1 -19.4629 27.2682 0.619716 1 1.06146e-08 
4916 1 -18.3107 25.1127 1.09018 1 4.18221e-08 