ITEM: TIMESTEP
0
ITEM: NUMBER OF ATOMS
22134
ITEM: BOX BOUNDS ss pp pp
-69.5229 116.111
0 42.8949
0 30.1777
ITEM: ATOMS id type x y z c_cna c_csd 
3 4 -69.5228 0.609795 1.97874 5 30.976 
58 4 -67.4002 1.693 1.26022 1 5.99141e-16 
60 4 -65.2775 0.393154 1.26022 1 1.29648e-15 
236 4 -64.2162 2.12628 2.69725 1 1.9966e-16 
237 4 -63.1549 1.47636 0.541703 1 1.2989e-15 
239 4 -62.0936 0.826436 2.69725 1 3.41414e-09 
240 4 -61.0323 0.176513 0.541703 1 1.33851e-08 
546 1 -59.971 1.90962 1.97877 1 1.86142e-09 
552 1 -57.8483 0.609747 1.97882 1 2.2718e-09 
975 1 -55.7257 1.69295 1.26033 1 2.58164e-09 
977 1 -53.6031 0.393113 1.26035 1 1.2086e-09 
1435 1 -52.5418 2.12625 2.69738 1 3.50862e-09 
1436 1 -51.4805 1.47634 0.54184 1 1.30648e-09 
1438 1 -50.4191 0.826439 2.6974 1 6.1605e-10 
1439 1 -49.3578 0.176529 0.541855 1 1.92339e-09 
1895 1 -48.2965 1.90968 1.9789 1 1.14579e-09 
1901 1 -46.1739 0.609852 1.97891 1 1.81953e-09 
2361 1 -44.0513 1.69307 1.26044 1 2.10155e-09 
2363 1 -41.9286 0.393232 1.26051 1 2.60286e-09 
2821 1 -40.8673 2.12636 2.69757 1 7.94739e-10 
2822 1 -39.806 1.47644 0.542059 1 1.79975e-09 
2824 1 -38.7447 0.826525 2.69764 1 1.4312e-09 
2825 1 -37.6833 0.176601 0.54211 1 8.16635e-10 
3281 1 -36.622 1.90973 1.97916 1 1.63751e-09 
3287 1 -34.4994 0.609872 1.97921 1 5.72905e-10 
3747 1 -32.3767 1.69306 1.26074 1 3.2095e-09 
3749 1 -30.2541 0.393152 1.2608 1 1.5582e-09 
4207 1 -29.1928 2.12625 2.69786 1 3.9666e-09 
4208 1 -28.1314 1.47629 0.542356 1 2.08922e-09 
4210 1 -27.0701 0.826324 2.69794 1 2.31231e-09 
4211 1 -26.0088 0.176358 0.542428 1 3.06107e-09 
4667 1 -24.9474 1.90944 1.97949 1 2.08213e-09 
4673 1 -22.8248 0.609501 1.97958 1 3.24935e-09 
5133 1 -20.7021 1.69264 1.26116 1 2.20373e-08 
5135 1 -18.5794 0.392734 1.26132 1 1.42744e-07 
5593 1 -17.5179 2.12579 2.6984 1 1.56512e-07 
5594 1 -16.4566 1.47583 0.542926 1 4.26968e-07 
5596 1 -15.3952 0.825867 2.69848 1 1.45674e-06 
5597 1 -14.3339 0.175898 0.542925 1 4.40632e-06 
6053 1 -13.2718 1.90847 1.98062 1 4.22829e-05 
6059 1 -11.1474 0.607494 1.9814 1 0.00036002 
6519 1 -9.03222 1.69653 1.26331 1 0.00122291 
6521 1 -6.92201 0.401088 1.26802 1 0.00731425 
6979 1 -5.8513 2.13252 2.70305 1 0.0355268 
6980 1 -4.80651 1.50341 0.561155 1 0.198334 
6983 1 -2.7178 0.314098 0.71467 5 5.09716 
7438 1 -1.11677 1.84629 2.01255 5 9.59361 
8448 2 1.51273 0.839002 1.24404 1 0.57469 
8449 2 0.19164 2.47467 0.0223983 5 4.1372 
8720 2 3.61824 2.13164 1.32175 1 0.0357385 
8722 2 5.74415 1.04697 0.602776 1 0.00313876 
9116 2 7.85969 2.34304 0.60655 1 0.000520202 
9118 2 8.91424 0.606102 2.04334 1 0.000360719 
9569 2 11.0385 1.90689 2.04405 1 4.20585e-05 
9581 2 13.1619 0.824096 1.32611 1 1.53259e-06 
10041 2 15.2846 2.12384 1.32607 1 1.76698e-07 
10043 2 17.4073 1.04055 0.607546 1 3.92925e-08 
10499 2 19.5299 2.34029 0.607553 1 5.17002e-09 
10501 2 20.5913 0.607094 2.04458 1 4.28124e-09 
10955 2 22.7139 1.90686 2.0446 1 2.29051e-09 
2 4 -69.5228 2.99285 1.26022 5 30.976 
53 4 -68.4615 4.72597 2.69725 5 6.1952 
54 4 -67.4002 4.07605 0.541703 1 9.99521e-16 
56 4 -66.3389 3.42613 2.69725 1 9.99998e-16 
59 4 -65.2775 2.77621 0.541703 1 9.99459e-16 
228 4 -64.2162 4.50933 1.97874 1 6e-16 
238 4 -62.0936 3.20949 1.97874 1 3.5326e-09 
549 1 -59.971 4.29267 1.26025 1 2.24606e-09 
551 1 -57.8483 2.99279 1.26029 1 4.87279e-09 
970 1 -56.787 4.72592 2.69735 1 2.57639e-09 
971 1 -55.7257 4.076 0.541817 1 5.98686e-09 
973 1 -54.6644 3.42608 2.69738 1 3.32119e-09 
976 1 -53.6031 2.77617 0.541829 1 1.39072e-09 
1427 1 -52.5418 4.5093 1.97888 1 1.75132e-09 
1437 1 -50.4192 3.20949 1.97889 1 1.21616e-09 
1898 1 -48.2965 4.29273 1.26037 1 1.33951e-09 
1900 1 -46.1739 2.9929 1.26039 1 2.41738e-09 
2356 1 -45.1126 4.72604 2.69744 1 2.89224e-09 
2357 1 -44.0513 4.07612 0.541917 1 2.75166e-09 
2359 1 -42.99 3.4262 2.6975 1 1.03162e-09 
2362 1 -41.9286 2.77628 0.541983 1 1.25916e-09 
2813 1 -40.8673 4.50941 1.97906 1 2.18384e-09 
2823 1 -38.7447 3.20957 1.97912 1 4.88611e-09 
3284 1 -36.622 4.29278 1.26064 1 2.24638e-09 
3286 1 -34.4994 2.99292 1.26068 1 1.57103e-09 
3742 1 -33.4381 4.72605 2.69775 1 2.28683e-09 
3743 1 -32.3767 4.07611 0.54222 1 4.30907e-09 
3745 1 -31.3154 3.42617 2.6978 1 4.59128e-09 
3748 1 -30.2541 2.77621 0.542272 1 3.72003e-09 
4199 1 -29.1928 4.5093 1.97934 1 4.51816e-09 
4209 1 -27.0701 3.20938 1.97942 1 1.93501e-09 
4670 1 -24.9474 4.29249 1.26097 1 1.06232e-09 
4672 1 -22.8248 2.99256 1.26105 1 2.99178e-09 
5128 1 -21.7634 4.72564 2.69813 1 7.88841e-09 
5129 1 -20.7021 4.07567 0.542638 1 1.65457e-08 
5131 1 -19.6407 3.42571 2.69826 1 2.49834e-08 
5134 1 -18.5793 2.77575 0.542782 1 5.22358e-08 
5585 1 -17.5179 4.50878 1.97996 1 5.50594e-07 
5595 1 -15.395 3.20875 1.98022 1 4.96073e-06 
6056 1 -13.2732 4.29252 1.26161 1 1.9689e-05 
6058 1 -11.1516 2.99356 1.26184 1 0.000163674 
6514 1 -10.0888 4.72551 2.69655 1 0.00035781 
6515 1 -9.02565 4.0768 0.539166 1 0.00124122 
6517 1 -7.96807 3.42667 2.69416 1 0.00314364 
6520 1 -6.90291 2.78497 0.536575 1 0.0151611 
6971 1 -5.8171 4.4797 1.97337 1 0.0631465 
6981 1 -3.63034 3.13548 1.94589 1 0.569031 
7440 1 -1.71389 4.2144 1.03168 5 7.1001 
8440 2 0.448968 5.06601 0.711255 5 1.4894 
8442 2 1.39701 3.13462 2.07908 1 0.57058 
8707 2 3.5839 4.47873 2.05156 1 0.0633663 
8721 2 5.73494 3.42559 1.33067 1 0.00316341 
9119 2 7.85566 4.72423 1.32823 1 0.000360895 
9121 2 9.97948 3.6414 0.607405 1 6.56448e-05 
9573 2 12.1012 4.94062 0.60748 1 8.03861e-06 
9575 2 13.1617 3.20698 2.04437 1 4.80785e-06 
10028 2 15.2845 4.50684 2.0445 1 5.3516e-07 
10042 2 17.4073 3.42358 1.32606 1 1.92906e-08 
10502 2 19.5299 4.72332 1.32606 1 3.00974e-09 
10504 2 21.6526 3.64003 0.607555 1 2.60068e-09 
1 4 -69.5228 5.3759 0.541703 5 30.976 
40 4 -68.4615 7.10903 1.97874 5 12.3904 
55 4 -66.3389 5.80918 1.97874 1 6.99998e-16 
231 4 -64.2162 6.89238 1.26022 1 1.996e-16 
232 4 -62.0936 7.97559 0.541703 1 3.42483e-09 
233 4 -62.0936 5.59254 1.26022 1 3.15442e-09 
537 4 -61.0323 7.32567 2.69725 1 1.33734e-08 
538 1 -59.971 6.67572 0.541732 1 2.14611e-09 
540 1 -58.9096 6.02579 2.69731 1 1.11277e-09 
550 1 -57.8483 5.37585 0.541778 1 1.43953e-09 
956 1 -56.787 7.10897 1.97883 1 3.61727e-09 
972 1 -54.6644 5.80912 1.97886 1 4.54235e-09 
1430 1 -52.5418 6.89236 1.26035 1 1.0963e-09 
1431 1 -50.4191 7.97559 0.541848 1 6.23231e-10 
1432 1 -50.4192 5.59255 1.26036 1 1.46885e-09 
1886 1 -49.3578 7.32568 2.69741 1 1.90731e-09 
1887 1 -48.2965 6.67577 0.541857 1 1.01998e-09 
1889 1 -47.2352 6.02587 2.69742 1 1.29038e-09 
1899 1 -46.1739 5.37595 0.541882 1 1.10694e-09 
2342 1 -45.1126 7.10909 1.97893 1 2.76709e-09 
2358 1 -42.99 5.80925 1.97899 1 1.37738e-09 
2816 1 -40.8673 6.89247 1.26054 1 1.3896e-09 
2817 1 -38.7447 7.97568 0.542085 1 1.42721e-09 
2818 1 -38.7447 5.59263 1.26061 1 5.27572e-09 
3272 1 -37.6833 7.32575 2.69766 1 8.06427e-10 
3273 1 -36.622 6.67583 0.542128 1 6.2017e-10 
3275 1 -35.5607 6.0259 2.6977 1 8.91379e-10 
3285 1 -34.4994 5.37598 0.542173 1 7.51252e-10 
3728 1 -33.4381 7.1091 1.97923 1 2.11441e-09 
3744 1 -31.3154 5.80921 1.97928 1 1.78157e-09 
4202 1 -29.1928 6.89236 1.26083 1 3.78004e-09 
4203 1 -27.0701 7.97548 0.542393 1 2.35387e-09 
4204 1 -27.0701 5.59243 1.2609 1 2.15287e-09 
4658 1 -26.0088 7.32551 2.69798 1 3.05731e-09 
4659 1 -24.9474 6.67554 0.542459 1 1.01317e-09 
4661 1 -23.8861 6.02557 2.69804 1 3.30194e-09 
4671 1 -22.8248 5.37561 0.542538 1 3.60428e-09 
5114 1 -21.7634 7.10869 1.97963 1 6.28187e-09 
5130 1 -19.6407 5.80874 1.97977 1 5.39481e-08 
5588 1 -17.5181 6.89195 1.26139 1 3.26369e-07 
5589 1 -15.3952 7.97502 0.542928 1 1.45621e-06 
5590 1 -15.3955 5.59214 1.2615 1 2.52258e-06 
6044 1 -14.3339 7.32505 2.69848 1 4.40533e-06 
6045 1 -13.2723 6.67513 0.542758 1 1.40656e-05 
6047 1 -12.2112 6.0252 2.69811 1 4.14257e-05 
6057 1 -11.1493 5.37532 0.541898 1 0.000128387 
6500 1 -10.0857 7.10549 1.98224 1 0.000907161 
6516 1 -7.95691 5.79934 1.98187 1 0.00752123 
6974 1 -5.8724 6.90225 1.26916 1 0.0209061 
6975 1 -3.74565 7.98893 0.624971 1 0.57241 
6976 1 -3.79548 5.58888 1.2426 1 0.381976 
7431 1 -1.70568 6.64665 0.870343 5 5.9036 
8443 2 0.48484 7.46281 1.15417 5 5.0962 
8445 2 2.58243 6.26471 0.609568 1 0.0958882 
8711 2 4.68894 7.54924 0.601249 1 0.00734126 
8713 2 5.72375 5.79822 2.04297 1 0.00755451 
9102 2 7.85254 7.10419 2.04253 1 0.000910671 
9120 2 9.97802 6.02371 1.3266 1 4.1561e-05 
9576 2 12.1007 7.32338 1.32615 1 4.48692e-06 
9578 2 14.2235 6.24017 0.607501 1 1.05264e-06 
10032 2 16.346 7.53985 0.607531 1 1.46587e-07 
10034 2 17.4073 5.80662 2.04455 1 6.00519e-08 
10485 2 19.5299 7.10637 2.04457 1 9.4988e-09 
10503 2 21.6526 6.02308 1.32608 1 2.4845e-09 
43 4 -68.4615 9.49208 1.26022 5 12.3904 
44 4 -66.3389 10.5753 0.541703 1 7.99521e-16 
45 4 -66.3389 8.19223 1.26022 1 1.3e-15 
214 4 -65.2775 9.92536 2.69725 1 7.98802e-16 
215 4 -64.2162 9.27544 0.541703 1 8.97922e-16 
217 4 -63.1549 8.62551 2.69725 1 1.0008e-15 
517 4 -61.0323 9.70872 1.97874 1 1.37914e-08 
539 1 -58.9096 8.40883 1.97879 1 2.9463e-09 
959 1 -56.787 9.49202 1.26031 1 4.60748e-09 
960 1 -54.6644 10.5752 0.541825 1 3.34005e-09 
961 1 -54.6644 8.19218 1.26034 1 1.67386e-09 
1413 1 -53.6031 9.92532 2.69738 1 1.40915e-09 
1414 1 -52.5418 9.27541 0.541831 1 3.52524e-09 
1416 1 -51.4805 8.6255 2.69739 1 1.28741e-09 
1866 1 -49.3578 9.70874 1.97889 1 1.39734e-09 
1888 1 -47.2352 8.40892 1.9789 1 1.28055e-09 
2345 1 -45.1126 9.49215 1.26041 1 8.01956e-09 
2346 1 -42.99 10.5754 0.54195 1 1.03644e-09 
2347 1 -42.99 8.1923 1.26047 1 1.2765e-09 
2799 1 -41.9286 9.92543 2.69753 1 1.25262e-09 
2800 1 -40.8673 9.27552 0.542023 1 7.96854e-10 
2802 1 -39.806 8.62559 2.69761 1 1.78087e-09 
3252 1 -37.6833 9.7088 1.97914 1 1.8915e-09 
3274 1 -35.5607 8.40896 1.97918 1 7.68588e-10 
3731 1 -33.4381 9.49215 1.26071 1 1.60443e-09 
3732 1 -31.3154 10.5753 0.542244 1 4.66912e-09 
3733 1 -31.3154 8.19227 1.26077 1 2.52025e-09 
4185 1 -30.2541 9.92536 2.69782 1 3.69683e-09 
4186 1 -29.1928 9.27541 0.542307 1 3.91934e-09 
4188 1 -28.1314 8.62544 2.69791 1 2.10558e-09 
4638 1 -26.0088 9.70856 1.97945 1 7.18534e-10 
4660 1 -23.8861 8.40862 1.97952 1 3.64276e-09 
5117 1 -21.7634 9.49175 1.2611 1 8.16597e-09 
5118 1 -19.6407 10.5749 0.542707 1 2.48052e-08 
5119 1 -19.6407 8.19184 1.26124 1 4.22401e-08 
5571 1 -18.5793 9.9249 2.69833 1 5.22719e-08 
5572 1 -17.5179 9.27494 0.542853 1 1.56495e-07 
5574 1 -16.4566 8.62498 2.69848 1 4.27369e-07 
6024 1 -14.3337 9.70782 1.98042 1 1.27684e-05 
6046 1 -12.2104 8.40726 1.98106 1 0.000108664 
6503 1 -10.0929 9.49348 1.26267 1 0.000520155 
6504 1 -7.96807 10.5758 0.538614 1 0.00314322 
6505 1 -7.97725 8.19721 1.26647 1 0.00312818 
6957 1 -6.90291 9.93413 2.69213 1 0.0151617 
6958 1 -5.8513 9.28168 0.547499 1 0.0355264 
6960 1 -4.8065 8.65256 2.7167 1 0.198312 
7410 1 -2.42507 9.62467 1.84711 5 4.12675 
8426 2 0.191639 9.62382 2.17795 5 4.13719 
8444 2 2.57355 8.65175 1.30801 1 0.199308 
8714 2 4.66983 9.93315 1.3327 1 0.0152418 
8716 2 6.79909 8.84449 0.605924 1 0.00122646 
9106 2 8.91835 10.1413 0.607351 1 0.000163484 
9108 2 9.97717 8.40578 2.04365 1 0.000108725 
9556 2 12.1004 9.70615 2.04421 1 1.26009e-05 
9577 2 14.2233 8.62312 1.32607 1 4.74534e-07 
10035 2 16.346 9.92286 1.32606 1 5.34648e-08 
10037 2 18.4686 8.83957 0.607551 1 1.71149e-08 
10489 2 20.5913 10.1393 0.607554 1 1.82759e-09 
10491 2 21.6526 8.40613 2.04459 1 3.55566e-09 
30 4 -69.5228 12.5251 2.69725 5 30.976 
31 4 -68.4615 11.8751 0.541703 5 12.3904 
33 4 -67.4002 11.2252 2.69725 1 4.98802e-16 
189 4 -65.2775 12.3084 1.97874 1 9.996e-16 
194 4 -63.1549 13.3916 1.26022 1 1.1996e-15 
216 4 -63.1549 11.0086 1.97874 1 7.00802e-16 
520 4 -61.0323 12.0918 1.26022 1 1.2462e-08 
521 1 -58.9096 13.1749 0.541754 1 1.11539e-09 
522 1 -58.9096 10.7919 1.26027 1 3.18647e-09 
935 1 -57.8483 12.525 2.69733 1 1.42772e-09 
936 1 -56.787 11.8751 0.541797 1 2.58611e-09 
938 1 -55.7257 11.2252 2.69737 1 5.97201e-09 
1387 1 -53.6031 12.3084 1.97887 1 1.50114e-09 
1392 1 -51.4805 13.3916 1.26036 1 8.42813e-10 
1415 1 -51.4805 11.0086 1.97889 1 3.93642e-09 
1869 1 -49.3579 12.0918 1.26037 1 3.11774e-09 
1870 1 -47.2352 13.175 0.541866 1 1.31384e-09 
1871 1 -47.2352 10.792 1.26038 1 2.26794e-09 
2321 1 -46.1739 12.5251 2.69743 1 1.11064e-09 
2322 1 -45.1126 11.8752 0.541894 1 2.84769e-09 
2324 1 -44.0513 11.2253 2.69747 1 2.77661e-09 
2773 1 -41.9286 12.3085 1.97902 1 9.13706e-10 
2778 1 -39.806 13.3917 1.26058 1 4.98067e-09 
2801 1 -39.806 11.0086 1.9791 1 5.79908e-09 
3255 1 -37.6834 12.0919 1.26062 1 3.86827e-09 
3256 1 -35.5607 13.1751 0.542147 1 8.95316e-10 
3257 1 -35.5607 10.792 1.26066 1 4.07235e-09 
3707 1 -34.4994 12.5251 2.69772 1 7.58384e-10 
3708 1 -33.4381 11.8752 0.542195 1 2.22595e-09 
3710 1 -32.3767 11.2253 2.69777 1 4.29338e-09 
4159 1 -30.2541 12.3084 1.97931 1 2.3757e-09 
4164 1 -28.1314 13.3915 1.26087 1 1.12452e-09 
4187 1 -28.1314 11.0085 1.97938 1 2.44651e-09 
4641 1 -26.0088 12.0916 1.26093 1 1.27766e-09 
4642 1 -23.8861 13.1747 0.542492 1 3.3179e-09 
4643 1 -23.8861 10.7917 1.26101 1 2.59168e-09 
5093 1 -22.8248 12.5248 2.69809 1 3.55367e-09 
5094 1 -21.7634 11.8748 0.542583 1 7.80847e-09 
5096 1 -20.7021 11.2248 2.69819 1 1.66033e-08 
5545 1 -18.5793 12.3079 1.97986 1 1.66202e-07 
5550 1 -16.4568 13.3912 1.26147 1 1.08159e-06 
5573 1 -16.4566 11.0079 1.98009 1 1.49503e-06 
6027 1 -14.3344 12.0915 1.26159 1 8.30045e-06 
6028 1 -12.2112 13.1744 0.542557 1 4.14046e-05 
6029 1 -12.2127 10.7921 1.26175 1 6.65014e-05 
6479 1 -11.1493 12.5245 2.69745 1 0.000128394 
6480 1 -10.0888 11.8747 0.541 1 0.000357804 
6482 1 -9.02565 11.226 2.69472 1 0.00124118 
6931 1 -6.87892 12.2923 1.97788 1 0.029482 
6959 1 -4.68844 10.9772 1.94623 1 0.268996 
7413 1 -2.68201 12.2157 1.15822 5 1.48546 
7415 1 -0.519298 11.363 0.838069 5 7.10072 
8430 2 1.56237 12.7372 0.626836 1 0.383046 
8432 2 2.45519 10.9763 2.07873 1 0.269893 
8691 2 4.64575 12.2913 2.04701 1 0.0296005 
8715 2 6.79251 11.2248 1.3301 1 0.00124956 
9109 2 8.91612 12.5231 1.3273 1 0.000129595 
9111 2 11.0399 11.4401 0.607506 1 1.94429e-05 
9560 2 13.1622 12.7395 0.60751 1 2.43916e-06 
9562 2 14.2232 11.0061 2.04444 1 1.41471e-06 
10012 2 16.3459 12.3059 2.04453 1 1.53978e-07 
10036 2 18.4686 11.2226 1.32606 1 5.26577e-09 
10492 2 20.5913 12.5224 1.32607 1 1.42823e-09 
10494 2 22.7139 11.4391 0.607563 1 2.96071e-09 
19 4 -69.5228 14.9081 1.97874 5 30.976 
24 4 -67.4002 15.9913 1.26022 1 8.99601e-16 
32 4 -67.4002 13.6083 1.97874 1 5e-16 
192 4 -65.2775 14.6915 1.26022 1 8.99599e-16 
193 4 -63.1549 15.7747 0.541703 1 9.9952e-16 
491 4 -62.0936 15.1247 2.69725 1 3.41525e-09 
492 4 -61.0323 14.4748 0.541703 1 1.33832e-08 
494 1 -59.971 13.8249 2.69728 1 2.14411e-09 
903 1 -57.8483 14.9081 1.97882 1 2.27192e-09 
908 1 -55.7257 15.9913 1.26033 1 2.58164e-09 
937 1 -55.7257 13.6082 1.97885 1 3.01371e-09 
1390 1 -53.6031 14.6914 1.26035 1 1.2086e-09 
1391 1 -51.4805 15.7747 0.54184 1 1.3065e-09 
1840 1 -50.4191 15.1247 2.6974 1 6.16041e-10 
1841 1 -49.3578 14.4748 0.541855 1 1.9234e-09 
1843 1 -48.2965 13.8249 2.69741 1 1.00822e-09 
2289 1 -46.1739 14.9082 1.97891 1 1.81954e-09 
2294 1 -44.0513 15.9914 1.26044 1 2.10151e-09 
2323 1 -44.0513 13.6083 1.97896 1 2.14335e-09 
2776 1 -41.9286 14.6915 1.26051 1 2.60282e-09 
2777 1 -39.806 15.7747 0.542059 1 1.79974e-09 
3226 1 -38.7447 15.1248 2.69764 1 1.43118e-09 
3227 1 -37.6833 14.4749 0.54211 1 8.16642e-10 
3229 1 -36.622 13.825 2.69768 1 6.36924e-10 
3675 1 -34.4994 14.9082 1.97921 1 5.72879e-10 
3680 1 -32.3767 15.9914 1.26074 1 3.20948e-09 
3709 1 -32.3767 13.6083 1.97925 1 3.717e-09 
4162 1 -30.2541 14.6915 1.2608 1 1.5582e-09 
4163 1 -28.1314 15.7746 0.542356 1 2.08896e-09 
4612 1 -27.0701 15.1246 2.69794 1 2.31178e-09 
4613 1 -26.0088 14.4747 0.542428 1 3.06195e-09 
4615 1 -24.9474 13.8247 2.69801 1 1.02877e-09 
5061 1 -22.8248 14.9078 1.97958 1 3.25006e-09 
5066 1 -20.7021 15.9909 1.26116 1 2.20412e-08 
5095 1 -20.7021 13.6079 1.9797 1 1.69136e-08 
5548 1 -18.5794 14.691 1.26132 1 1.42712e-07 
5549 1 -16.4566 15.7741 0.542926 1 4.27076e-07 
5998 1 -15.3952 15.1242 2.69848 1 1.4568e-06 
5999 1 -14.3339 14.4742 0.542925 1 4.40561e-06 
6001 1 -13.2723 13.8243 2.69831 1 1.40646e-05 
6447 1 -11.1474 14.9058 1.9814 1 0.000360016 
6452 1 -9.03222 15.9948 1.26331 1 0.00122292 
6481 1 -9.02028 13.602 1.98236 1 0.00319405 
6934 1 -6.92201 14.6994 1.26802 1 0.00731429 
6935 1 -4.80651 15.8017 0.561153 1 0.198327 
6936 1 -4.81546 13.4147 1.25979 1 0.0955222 
7385 1 -2.71781 14.6124 0.714673 5 5.09715 
7414 1 -0.527422 13.7954 0.998382 5 5.90604 
8433 2 1.51273 15.1373 1.24404 1 0.574682 
8435 2 3.63937 14.0505 0.600148 1 0.0209818 
8695 2 5.74415 15.3453 0.602776 1 0.00313876 
8697 2 6.78711 13.6008 2.04245 1 0.00320851 
9082 2 8.91424 14.9044 2.04334 1 0.000360711 
9110 2 11.039 13.8227 1.32636 1 1.42589e-05 
9563 2 13.1619 15.1224 1.32611 1 1.53265e-06 
9565 2 15.2847 14.0392 0.607525 1 3.06073e-07 
10016 2 17.4073 15.3389 0.607546 1 3.92927e-08 
10018 2 18.4686 13.6057 2.04455 1 2.42052e-08 
10465 2 20.5913 14.9054 2.04458 1 4.2815e-09 
10493 2 22.7139 13.8221 1.32608 1 1.48005e-09 
22 4 -69.5228 17.2912 1.26022 5 30.976 
23 4 -67.4002 18.3744 0.541703 1 6.99521e-16 
167 4 -66.3389 17.7244 2.69725 1 9.99998e-16 
168 4 -65.2775 17.0745 0.541703 1 1.29952e-15 
170 4 -64.2162 16.4246 2.69725 1 2e-16 
454 4 -62.0936 17.5078 1.97874 1 3.53182e-09 
459 1 -59.971 18.591 1.26025 1 2.2459e-09 
493 1 -59.971 16.2079 1.97877 1 1.861e-09 
906 1 -57.8483 17.2911 1.26029 1 4.8725e-09 
907 1 -55.7257 18.3743 0.541817 1 5.98674e-09 
1354 1 -54.6644 17.7244 2.69738 1 3.32105e-09 
1355 1 -53.6031 17.0745 0.541829 1 1.39071e-09 
1357 1 -52.5418 16.4246 2.69738 1 3.5087e-09 
1802 1 -50.4192 17.5078 1.97889 1 1.21616e-09 
1807 1 -48.2965 18.591 1.26037 1 1.33947e-09 
1842 1 -48.2965 16.208 1.9789 1 1.14576e-09 
2292 1 -46.1739 17.2912 1.26039 1 2.41738e-09 
2293 1 -44.0513 18.3744 0.541917 1 2.75162e-09 
2740 1 -42.99 17.7245 2.6975 1 1.03163e-09 
2741 1 -41.9286 17.0746 0.541983 1 1.25918e-09 
2743 1 -40.8673 16.4247 2.69757 1 7.94694e-10 
3188 1 -38.7447 17.5079 1.97912 1 4.88609e-09 
3193 1 -36.622 18.5911 1.26064 1 2.24648e-09 
3228 1 -36.622 16.208 1.97916 1 1.63748e-09 
3678 1 -34.4994 17.2912 1.26068 1 1.57096e-09 
3679 1 -32.3767 18.3744 0.54222 1 4.30902e-09 
4126 1 -31.3154 17.7245 2.6978 1 4.59111e-09 
4127 1 -30.2541 17.0745 0.542272 1 3.71995e-09 
4129 1 -29.1928 16.4246 2.69786 1 3.9668e-09 
4574 1 -27.0701 17.5077 1.97942 1 1.93468e-09 
4579 1 -24.9474 18.5908 1.26097 1 1.06205e-09 
4614 1 -24.9474 16.2077 1.97949 1 2.08213e-09 
5064 1 -22.8248 17.2909 1.26105 1 2.99106e-09 
5065 1 -20.7021 18.374 0.542638 1 1.65452e-08 
5512 1 -19.6407 17.724 2.69826 1 2.49834e-08 
5513 1 -18.5793 17.0741 0.542782 1 5.22268e-08 
5515 1 -17.5179 16.4241 2.6984 1 1.565e-07 
5960 1 -15.395 17.5071 1.98022 1 4.96045e-06 
5965 1 -13.2732 18.5908 1.26161 1 1.96875e-05 
6000 1 -13.2718 16.2068 1.98062 1 4.22842e-05 
6450 1 -11.1516 17.2919 1.26184 1 0.00016368 
6451 1 -9.02565 18.3751 0.539166 1 0.00124117 
6898 1 -7.96807 17.725 2.69416 1 0.00314347 
6899 1 -6.90291 17.0833 0.536576 1 0.0151617 
6901 1 -5.8513 16.4308 2.70305 1 0.0355271 
7346 1 -3.63034 17.4338 1.94589 1 0.569022 
7351 1 -1.71389 18.5127 1.03168 5 7.10007 
7386 1 -1.11677 16.1446 2.01255 5 9.59368 
8307 2 0.191638 16.773 0.0223962 5 4.13714 
8412 2 1.39701 17.4329 2.07908 1 0.570571 
8434 2 3.61824 16.4299 1.32175 1 0.0357382 
8698 2 5.73494 17.7239 1.33067 1 0.00316364 
8700 2 7.85969 16.6413 0.60655 1 0.000520188 
9086 2 9.97948 17.9397 0.607405 1 6.56473e-05 
9088 2 11.0385 16.2052 2.04405 1 4.20594e-05 
9532 2 13.1617 17.5053 2.04437 1 4.8078e-06 
9564 2 15.2846 16.4221 1.32607 1 1.76691e-07 
10019 2 17.4073 17.7219 1.32606 1 1.92917e-08 
10021 2 19.5299 16.6386 0.607553 1 5.17008e-09 
10469 2 21.6526 17.9383 0.607555 1 2.60049e-09 
10471 2 22.7139 16.2052 2.0446 1 2.29045e-09 
14 4 -69.5228 19.6742 0.541703 5 30.976 
15 4 -68.4615 21.4073 1.97874 5 12.3904 
16 4 -68.4615 19.0243 2.69725 5 6.1952 
144 4 -66.3389 20.1075 1.97874 1 6.99998e-16 
149 4 -64.2162 21.1907 1.26022 1 4.996e-16 
169 4 -64.2162 18.8076 1.97874 1 5e-16 
457 4 -62.0936 19.8908 1.26022 1 3.15381e-09 
458 1 -59.971 20.974 0.541732 1 2.14602e-09 
865 1 -58.9096 20.3241 2.69731 1 1.11264e-09 
866 1 -57.8483 19.6742 0.541778 1 1.43945e-09 
867 1 -56.787 21.4073 1.97883 1 3.61711e-09 
868 1 -56.787 19.0242 2.69735 1 2.57635e-09 
1312 1 -54.6644 20.1074 1.97886 1 4.54225e-09 
1317 1 -52.5418 21.1907 1.26035 1 1.09628e-09 
1356 1 -52.5418 18.8076 1.97888 1 1.75131e-09 
1805 1 -50.4192 19.8909 1.26036 1 1.46883e-09 
1806 1 -48.2965 20.9741 0.541857 1 1.01999e-09 
2251 1 -47.2352 20.3242 2.69742 1 1.29041e-09 
2252 1 -46.1739 19.6743 0.541882 1 1.10696e-09 
2253 1 -45.1126 21.4074 1.97893 1 2.7671e-09 
2254 1 -45.1126 19.0243 2.69744 1 2.8922e-09 
2698 1 -42.99 20.1076 1.97899 1 1.37738e-09 
2703 1 -40.8673 21.1908 1.26054 1 1.3896e-09 
2742 1 -40.8673 18.8077 1.97906 1 2.18381e-09 
3191 1 -38.7447 19.8909 1.26061 1 5.27577e-09 
3192 1 -36.622 20.9741 0.542128 1 6.20142e-10 
3637 1 -35.5607 20.3242 2.6977 1 8.91394e-10 
3638 1 -34.4994 19.6743 0.542173 1 7.51263e-10 
3639 1 -33.4381 21.4074 1.97923 1 2.11439e-09 
3640 1 -33.4381 19.0244 2.69775 1 2.28686e-09 
4084 1 -31.3154 20.1075 1.97928 1 1.78158e-09 
4089 1 -29.1928 21.1907 1.26083 1 3.78029e-09 
4128 1 -29.1928 18.8076 1.97934 1 4.51802e-09 
4577 1 -27.0701 19.8907 1.2609 1 2.15287e-09 
4578 1 -24.9474 20.9739 0.542459 1 1.01306e-09 
5023 1 -23.8861 20.3239 2.69804 1 3.30211e-09 
5024 1 -22.8248 19.6739 0.542538 1 3.60374e-09 
5025 1 -21.7634 21.407 1.97963 1 6.2838e-09 
5026 1 -21.7634 19.0239 2.69813 1 7.88945e-09 
5470 1 -19.6407 20.1071 1.97977 1 5.39415e-08 
5475 1 -17.5181 21.1903 1.26139 1 3.26322e-07 
5514 1 -17.5179 18.8071 1.97996 1 5.50649e-07 
5963 1 -15.3955 19.8904 1.2615 1 2.52279e-06 
5964 1 -13.2723 20.9734 0.542758 1 1.40644e-05 
6409 1 -12.2112 20.3235 2.69811 1 4.14218e-05 
6410 1 -11.1493 19.6736 0.541898 1 0.000128397 
6411 1 -10.0857 21.4038 1.98224 1 0.000907126 
6412 1 -10.0888 19.0238 2.69655 1 0.000357841 
6856 1 -7.95691 20.0976 1.98187 1 0.00752145 
6861 1 -5.87241 21.2006 1.26916 1 0.0209053 
6900 1 -5.8171 18.778 1.97337 1 0.0631465 
7349 1 -3.79547 19.8872 1.24259 1 0.381961 
7350 1 -1.7057 20.945 0.870352 5 5.90368 
8305 2 0.448965 19.3643 0.711251 5 1.48938 
8416 2 2.58243 20.563 0.60957 1 0.0958921 
8418 2 3.5839 18.777 2.05156 1 0.0633682 
8664 2 5.72375 20.0965 2.04297 1 0.00755417 
8670 2 7.85254 21.4025 2.04253 1 0.000910706 
8699 2 7.85566 19.0225 1.32823 1 0.000360867 
9089 2 9.97802 20.322 1.3266 1 4.1563e-05 
9091 2 12.1012 19.2389 0.60748 1 8.0382e-06 
9536 2 14.2235 20.5385 0.607501 1 1.0527e-06 
9538 2 15.2845 18.8051 2.0445 1 5.35148e-07 
9985 2 17.4073 20.1049 2.04455 1 6.0055e-08 
9991 2 19.5299 21.4047 2.04457 1 9.49905e-09 
10020 2 19.5299 19.0216 1.32606 1 3.0093e-09 
10472 2 21.6526 20.3214 1.32608 1 2.48445e-09 
11 4 -68.4615 23.7904 1.26022 5 12.3904 
147 4 -66.3389 22.4905 1.26022 1 1.1996e-15 
148 4 -64.2162 23.5737 0.541703 1 5.9952e-16 
420 4 -63.1549 22.9238 2.69725 1 1.1e-15 
421 4 -62.0936 22.2739 0.541703 1 3.42467e-09 
422 4 -61.0323 24.007 1.97874 1 1.37961e-08 
423 4 -61.0323 21.624 2.69725 1 1.33721e-08 
822 1 -58.9096 22.7071 1.97879 1 2.94658e-09 
827 1 -56.787 23.7903 1.26031 1 4.60764e-09 
1315 1 -54.6644 22.4905 1.26034 1 1.67383e-09 
1316 1 -52.5418 23.5737 0.541831 1 3.5253e-09 
1761 1 -51.4805 22.9238 2.69739 1 1.28741e-09 
1762 1 -50.4191 22.2739 0.541848 1 6.23234e-10 
1763 1 -49.3578 24.007 1.97889 1 1.39735e-09 
1764 1 -49.3578 21.624 2.69741 1 1.90737e-09 
2208 1 -47.2352 22.7072 1.9789 1 1.28053e-09 
2213 1 -45.1126 23.7905 1.26041 1 8.01958e-09 
2701 1 -42.99 22.4906 1.26047 1 1.27651e-09 
2702 1 -40.8673 23.5738 0.542023 1 7.96849e-10 
3147 1 -39.806 22.9239 2.69761 1 1.7809e-09 
3148 1 -38.7447 22.274 0.542085 1 1.4272e-09 
3149 1 -37.6833 24.0071 1.97914 1 1.89144e-09 
3150 1 -37.6833 21.6241 2.69766 1 8.06425e-10 
3594 1 -35.5607 22.7073 1.97918 1 7.68574e-10 
3599 1 -33.4381 23.7905 1.26071 1 1.60447e-09 
4087 1 -31.3154 22.4906 1.26077 1 2.52019e-09 
4088 1 -29.1928 23.5737 0.542307 1 3.91929e-09 
4533 1 -28.1314 22.9237 2.69791 1 2.10584e-09 
4534 1 -27.0701 22.2738 0.542393 1 2.35351e-09 
4535 1 -26.0088 24.0069 1.97945 1 7.18242e-10 
4536 1 -26.0088 21.6238 2.69798 1 3.05656e-09 
4980 1 -23.8861 22.7069 1.97952 1 3.64258e-09 
4985 1 -21.7634 23.7901 1.2611 1 8.16584e-09 
5473 1 -19.6407 22.4901 1.26124 1 4.22482e-08 
5474 1 -17.5179 23.5732 0.542853 1 1.5647e-07 
5919 1 -16.4566 22.9233 2.69848 1 4.27283e-07 
5920 1 -15.3952 22.2733 0.542928 1 1.45636e-06 
5921 1 -14.3337 24.0061 1.98042 1 1.27677e-05 
5922 1 -14.3339 21.6234 2.69848 1 4.40597e-06 
6366 1 -12.2104 22.7056 1.98106 1 0.00010867 
6371 1 -10.0929 23.7918 1.26267 1 0.000520172 
6859 1 -7.97725 22.4955 1.26647 1 0.00312817 
6860 1 -5.8513 23.58 0.547501 1 0.035526 
7305 1 -4.80651 22.9509 2.7167 1 0.198324 
7306 1 -3.74565 22.2872 0.624965 1 0.572395 
7307 1 -2.42507 23.923 1.84711 5 4.12668 
8299 2 0.191642 23.9221 2.17795 5 4.13729 
8304 2 0.484852 21.7611 1.15417 5 5.0962 
8419 2 2.57354 22.9501 1.30801 1 0.199294 
8421 2 4.68894 21.8475 0.601248 1 0.00734106 
8668 2 6.79909 23.1428 0.605925 1 0.00122647 
9052 2 9.97717 22.7041 2.04365 1 0.000108723 
9058 2 12.1004 24.0045 2.04421 1 1.26009e-05 
9090 2 12.1007 21.6217 1.32615 1 4.48681e-06 
9539 2 14.2233 22.9214 1.32607 1 4.74536e-07 
9541 2 16.346 21.8382 0.607531 1 1.46581e-07 
9989 2 18.4686 23.1379 0.607551 1 1.71144e-08 
10435 2 21.6526 22.7044 2.04459 1 3.55582e-09 
10 4 -68.4615 26.1734 0.541703 5 12.3904 
126 4 -67.4002 25.5235 2.69725 1 8e-16 
127 4 -66.3389 24.8736 0.541703 1 1.09952e-15 
128 4 -65.2775 26.6067 1.97874 1 1.1e-15 
129 4 -65.2775 24.2237 2.69725 1 4.99999e-16 
385 4 -63.1549 25.3069 1.97874 1 7e-16 
390 4 -61.0323 26.3901 1.26022 1 1.24607e-08 
825 1 -58.9096 25.0902 1.26027 1 3.18718e-09 
826 1 -56.787 26.1734 0.541797 1 2.58605e-09 
1271 1 -55.7257 25.5235 2.69737 1 5.97213e-09 
1272 1 -54.6644 24.8735 0.541825 1 3.34001e-09 
1273 1 -53.6031 26.6067 1.97887 1 1.50111e-09 
1274 1 -53.6031 24.2236 2.69738 1 1.40914e-09 
1718 1 -51.4805 25.3069 1.97889 1 3.93633e-09 
1723 1 -49.3579 26.3901 1.26037 1 3.11771e-09 
2211 1 -47.2352 25.0903 1.26038 1 2.26795e-09 
2212 1 -45.1126 26.1735 0.541894 1 2.84762e-09 
2657 1 -44.0513 25.5236 2.69747 1 2.77673e-09 
2658 1 -42.99 24.8737 0.54195 1 1.03643e-09 
2659 1 -41.9286 26.6068 1.97902 1 9.13715e-10 
2660 1 -41.9286 24.2237 2.69753 1 1.25259e-09 
3104 1 -39.806 25.307 1.9791 1 5.79914e-09 
3109 1 -37.6834 26.3902 1.26062 1 3.86828e-09 
3597 1 -35.5607 25.0903 1.26066 1 4.07222e-09 
3598 1 -33.4381 26.1735 0.542195 1 2.22593e-09 
4043 1 -32.3767 25.5236 2.69777 1 4.29336e-09 
4044 1 -31.3154 24.8736 0.542244 1 4.66889e-09 
4045 1 -30.2541 26.6067 1.97931 1 2.37561e-09 
4046 1 -30.2541 24.2237 2.69782 1 3.69691e-09 
4490 1 -28.1314 25.3068 1.97938 1 2.44632e-09 
4495 1 -26.0088 26.3899 1.26093 1 1.2774e-09 
4983 1 -23.8861 25.09 1.26101 1 2.59201e-09 
4984 1 -21.7634 26.1731 0.542583 1 7.80802e-09 
5429 1 -20.7021 25.5231 2.69819 1 1.66049e-08 
5430 1 -19.6407 24.8732 0.542707 1 2.48083e-08 
5431 1 -18.5793 26.6062 1.97986 1 1.66184e-07 
5432 1 -18.5793 24.2232 2.69833 1 5.22769e-08 
5876 1 -16.4566 25.3062 1.98009 1 1.49513e-06 
5881 1 -14.3344 26.3898 1.26159 1 8.30071e-06 
6369 1 -12.2127 25.0904 1.26175 1 6.64993e-05 
6370 1 -10.0888 26.173 0.541 1 0.000357806 
6815 1 -9.02565 25.5243 2.69472 1 0.00124124 
6816 1 -7.96807 24.8741 0.538613 1 0.00314324 
6817 1 -6.87892 26.5906 1.97787 1 0.0294823 
6818 1 -6.90291 24.2324 2.69213 1 0.0151608 
7262 1 -4.68844 25.2755 1.94623 1 0.268997 
7267 1 -2.682 26.514 1.15822 5 1.48546 
7740 1 -0.51931 25.6613 0.838058 5 7.10073 
8394 2 2.45518 25.2746 2.07873 1 0.269898 
8400 2 4.64575 26.5896 2.04701 1 0.0296005 
8420 2 4.66984 24.2315 1.3327 1 0.0152425 
8671 2 6.79251 25.5231 1.3301 1 0.00124953 
8673 2 8.91835 24.4396 0.607351 1 0.000163487 
9056 2 11.0399 25.7384 0.607506 1 1.94425e-05 
9498 2 14.2232 25.3044 2.04444 1 1.41473e-06 
9504 2 16.3459 26.6042 2.04453 1 1.53976e-07 
9540 2 16.346 24.2212 1.32606 1 5.3468e-08 
9992 2 18.4686 25.5209 1.32606 1 5.26534e-09 
9994 2 20.5913 24.4376 0.607554 1 1.82761e-09 
10439 2 22.7139 25.7374 0.607563 1 2.96075e-09 
6 4 -69.5228 29.2064 1.97874 5 30.976 
7 4 -69.5228 26.8234 2.69725 5 30.976 
107 4 -67.4002 27.9066 1.97874 1 2.00001e-16 
112 4 -65.2775 28.9898 1.26022 1 8.99599e-16 
358 4 -62.0936 29.4231 2.69725 1 3.41503e-09 
388 4 -63.1549 27.6899 1.26022 1 1.1996e-15 
389 4 -61.0323 28.7731 0.541703 1 1.33874e-08 
781 1 -59.971 28.1232 2.69728 1 2.14481e-09 
782 1 -58.9096 27.4732 0.541754 1 1.11558e-09 
783 1 -57.8483 29.2064 1.97882 1 2.27199e-09 
784 1 -57.8483 26.8233 2.69733 1 1.42782e-09 
1228 1 -55.7257 27.9065 1.97885 1 3.01377e-09 
1233 1 -53.6031 28.9897 1.26035 1 1.20861e-09 
1721 1 -51.4805 27.6899 1.26036 1 8.42775e-10 
1680 1 -50.4191 29.4231 2.6974 1 6.16044e-10 
1722 1 -49.3578 28.7731 0.541855 1 1.92339e-09 
2167 1 -48.2965 28.1232 2.69741 1 1.00819e-09 
2168 1 -47.2352 27.4733 0.541866 1 1.31384e-09 
2169 1 -46.1739 29.2065 1.97891 1 1.81952e-09 
2170 1 -46.1739 26.8234 2.69743 1 1.11062e-09 
2614 1 -44.0513 27.9066 1.97896 1 2.14344e-09 
2619 1 -41.9286 28.9898 1.26051 1 2.60284e-09 
3066 1 -38.7447 29.4231 2.69764 1 1.43117e-09 
3107 1 -39.806 27.69 1.26058 1 4.98069e-09 
3108 1 -37.6833 28.7732 0.54211 1 8.16651e-10 
3553 1 -36.622 28.1233 2.69768 1 6.36922e-10 
3554 1 -35.5607 27.4734 0.542147 1 8.95298e-10 
3555 1 -34.4994 29.2065 1.97921 1 5.72905e-10 
3556 1 -34.4994 26.8234 2.69772 1 7.58382e-10 
4000 1 -32.3767 27.9066 1.97925 1 3.71707e-09 
4005 1 -30.2541 28.9898 1.2608 1 1.55816e-09 
4452 1 -27.0701 29.4229 2.69794 1 2.31211e-09 
4493 1 -28.1314 27.6898 1.26087 1 1.12459e-09 
4494 1 -26.0088 28.773 0.542428 1 3.06142e-09 
4939 1 -24.9474 28.123 2.69801 1 1.02884e-09 
4940 1 -23.8861 27.473 0.542492 1 3.31838e-09 