ITEM: TIMESTEP
0
ITEM: NUMBER OF ATOMS
17670
ITEM: BOX BOUNDS ss pp pp
-78.0989 130.756
0 30.4841
0 30.2802
ITEM: ATOMS id type x y z c_cna c_csd 
216 4 -77.0356 1.82625 0.685902 5 18.5856 
218 4 -74.5551 1.82625 0.890498 1 6.00021e-16 
494 4 -72.0745 1.82625 1.09509 1 1.10006e-15 
496 4 -69.5939 1.82625 1.29969 1 7.61417e-10 
840 1 -67.1133 1.82626 1.50426 1 5.79813e-09 
842 1 -64.6327 1.82621 1.70884 1 2.52515e-09 
1228 1 -62.1521 1.82618 1.91343 1 8.45255e-09 
1231 1 -59.6716 1.82619 2.11801 1 2.83859e-09 
1594 1 -58.2541 1.82621 0.072048 1 1.67991e-09 
1633 1 -57.191 1.8262 2.32259 1 3.5013e-09 
1635 1 -55.7735 1.8262 0.276635 1 1.80291e-09 
1636 1 -54.7104 1.8262 2.52719 1 2.45681e-09 
2000 1 -53.2929 1.82621 0.481236 1 4.24755e-09 
2039 1 -52.2298 1.82623 2.73179 1 1.73708e-09 
2041 1 -50.8124 1.82626 0.685824 1 4.08121e-09 
2408 1 -48.3318 1.82631 0.890455 1 2.10826e-09 
2449 1 -45.8512 1.82635 1.0951 1 4.69105e-09 
2816 1 -43.3707 1.82635 1.29977 1 1.40448e-09 
2857 1 -40.8901 1.82634 1.50444 1 7.8045e-09 
3223 1 -38.4095 1.82636 1.70911 1 3.92701e-09 
3264 1 -35.9289 1.82638 1.91381 1 4.5107e-09 
3629 1 -33.4483 1.82638 2.11853 1 8.79301e-09 
3633 1 -32.0308 1.82641 0.0726717 1 2.19577e-09 
3670 1 -30.9677 1.82638 2.32329 1 9.75275e-09 
4035 1 -28.4871 1.82641 2.52804 1 1.95545e-08 
4038 1 -29.5502 1.82641 0.277428 1 7.02898e-09 
4039 1 -27.0695 1.8264 0.482213 1 3.58469e-08 
4076 1 -26.0065 1.82646 2.73286 1 2.4545e-08 
4445 1 -24.5889 1.82639 0.687029 1 9.89816e-08 
4447 1 -22.1084 1.82638 0.891872 1 3.78287e-07 
4853 1 -19.628 1.82644 1.09673 1 1.43232e-06 
4855 1 -17.1482 1.82661 1.30157 1 5.97991e-06 
5261 1 -14.6695 1.82693 1.50637 1 3.13788e-05 
5263 1 -12.1933 1.8274 1.71111 1 0.000196583 
5662 1 -9.72169 1.82834 1.91622 1 0.0013856 
5665 1 -7.25938 1.83081 2.12483 1 0.0115823 
5993 1 -5.86027 1.82627 0.0694703 1 0.049748 
6032 1 -4.81661 1.8283 2.35626 1 0.108922 
6034 1 -3.47771 1.79573 0.35148 5 4.01387 
6035 1 -2.35801 1.78582 2.50014 5 3.61214 
6572 2 -0.26373 2.01606 1.42826 5 2.28197 
6573 2 1.19533 0.0850321 2.06133 5 1.97647 
6597 2 2.21322 2.15645 1.29316 1 0.100984 
6594 2 3.57616 0.102848 1.92672 1 0.156635 
6599 2 4.69638 2.15146 1.0993 1 0.0106082 
6600 2 6.02016 0.113559 1.71758 1 0.0143655 
6674 2 8.49434 0.119263 1.50978 1 0.00125388 
6677 2 7.18569 2.15158 0.89747 1 0.00135828 
6679 2 9.67245 2.15247 0.691795 1 0.000192964 
6680 2 10.9758 0.121135 1.30427 1 0.000125105 
6822 2 11.0919 2.15597 2.73474 1 9.3184e-05 
6830 2 13.4578 0.121416 1.09942 1 1.8067e-05 
6831 2 13.5753 2.15534 2.53068 1 1.90079e-05 
6833 2 12.1567 2.15288 0.486386 1 3.18568e-05 
6834 2 14.6392 2.15306 0.28136 1 6.79816e-06 
6835 2 15.9392 0.121293 0.894761 1 4.01372e-06 
7059 2 16.0571 2.15451 2.32648 1 4.36988e-06 
7067 2 18.4202 0.121149 0.690144 1 1.11803e-06 
7068 2 18.5381 2.1539 2.12212 1 1.03532e-06 
7070 2 17.1206 2.15315 0.0765418 1 1.80354e-06 
7069 2 19.8376 0.121526 2.73593 1 5.15333e-07 
7071 2 20.9009 0.121034 0.48553 1 3.01056e-07 
7373 2 21.0189 2.15352 1.91763 1 2.45468e-07 
7380 2 22.3183 0.121167 2.53143 1 1.12533e-07 
7381 2 23.3815 0.120932 0.280919 1 9.63166e-08 
7382 2 23.4995 2.15328 1.71307 1 5.55045e-08 
7383 2 24.7989 0.120942 2.32687 1 3.78197e-08 
7384 2 25.862 0.120864 0.0763125 1 2.81217e-08 
7744 2 25.9801 2.15316 1.50849 1 2.59151e-08 
214 4 -75.8544 3.85852 1.50429 5 6.1952 
451 4 -73.3738 3.85852 1.70888 1 7.0002e-16 
492 4 -70.8932 3.85852 1.91348 1 7e-16 
797 4 -68.4126 3.85852 2.11807 1 4.02422e-09 
801 1 -66.9952 3.85852 0.0720879 1 3.53413e-09 
838 1 -65.9321 3.85852 2.32264 1 5.73594e-09 
1185 1 -63.4515 3.85846 2.52724 1 7.93723e-09 
1188 1 -64.5146 3.85848 0.276679 1 2.52017e-09 
1189 1 -62.034 3.85845 0.481274 1 1.0541e-08 
1226 1 -60.9709 3.85845 2.73181 1 3.85621e-09 
1593 1 -59.5534 3.85847 0.685849 1 6.26346e-09 
1595 1 -57.0729 3.85848 0.890431 1 2.76714e-09 
1999 1 -54.5923 3.85847 1.09502 1 4.34174e-09 
2001 1 -52.1117 3.8585 1.29962 1 2.58293e-09 
2407 1 -49.6312 3.85856 1.50421 1 9.36982e-09 
2409 1 -47.1506 3.85859 1.70887 1 1.59869e-09 
2815 1 -44.67 3.85861 1.91351 1 4.75574e-09 
2818 1 -42.1894 3.85861 2.11818 1 3.21661e-09 
3183 1 -40.7719 3.85864 0.0722733 1 4.65865e-09 
3222 1 -39.7089 3.85861 2.32286 1 4.8839e-09 
3224 1 -38.2914 3.85864 0.276946 1 5.57664e-09 
3225 1 -37.2283 3.85865 2.52754 1 3.58693e-09 
3589 1 -35.8108 3.85866 0.481644 1 4.01736e-09 
3628 1 -34.7477 3.85866 2.73225 1 6.72909e-09 
3630 1 -33.3302 3.85867 0.686375 1 4.6404e-09 
3995 1 -30.8496 3.85867 0.891129 1 6.92117e-09 
4036 1 -28.3689 3.85868 1.09588 1 2.96252e-08 
4402 1 -25.8883 3.85869 1.30069 1 5.29892e-08 
4443 1 -23.4077 3.85873 1.50556 1 1.99753e-07 
4810 1 -20.9271 3.85886 1.71049 1 7.62283e-07 
4851 1 -18.4468 3.85918 1.91549 1 2.81108e-06 
5218 1 -15.9669 3.85972 2.12064 1 1.07602e-05 
5222 1 -14.55 3.85727 0.0735868 1 1.92127e-05 
5259 1 -13.4875 3.86043 2.32594 1 5.10348e-05 
5622 1 -12.0711 3.85691 0.278251 1 0.000124972 
5619 1 -11.0083 3.86119 2.53118 1 0.000361752 
5623 1 -9.59222 3.85733 0.483243 1 0.00120775 
5660 1 -8.52605 3.86229 2.73464 1 0.00367955 
5992 1 -7.10803 3.86012 0.686395 1 0.0144467 
5994 1 -4.59455 3.86417 0.861943 1 0.24259 
6300 1 -1.97271 3.72271 0.968316 5 4.36983 
6589 2 0.730611 4.13307 0.823915 5 4.7312 
6598 2 3.34132 4.19357 0.527466 1 0.192088 
6668 2 4.78422 4.16361 2.54464 1 0.0389986 
6669 2 5.86493 4.18584 0.294171 1 0.0201181 
6671 2 7.2957 4.18124 2.32913 1 0.00337743 
6678 2 8.36389 4.18352 0.0808419 1 0.00236858 
6825 2 9.78819 4.18611 2.12186 1 0.000367166 
6827 2 12.2741 4.18687 1.91711 1 5.30795e-05 
7062 2 14.757 4.18654 1.71276 1 9.82458e-06 
7064 2 17.2385 4.18612 1.50835 1 2.18526e-06 
7376 2 19.7195 4.1858 1.30386 1 5.26315e-07 
7378 2 22.2002 4.1856 1.09929 1 1.263e-07 
7747 2 24.6808 4.18546 0.894697 1 4.19151e-08 
181 4 -77.1538 5.8908 2.11807 5 24.7808 
411 4 -75.7363 5.8908 0.0721143 5 6.1952 
450 4 -74.6732 5.8908 2.32267 1 4e-16 
452 4 -73.2557 5.8908 0.27671 1 7.99967e-16 
453 4 -72.1926 5.8908 2.52726 1 9.9996e-16 
757 4 -70.7751 5.8908 0.481306 1 1.00012e-15 
796 4 -69.712 5.8908 2.73186 1 5.25459e-10 
798 4 -68.2945 5.8908 0.685902 1 6.30546e-09 
1145 1 -65.8139 5.89077 0.890464 1 4.60509e-09 
1186 1 -63.3334 5.89072 1.09506 1 1.25116e-08 
1550 1 -60.8528 5.89073 1.29963 1 2.58671e-09 
1591 1 -58.3722 5.89074 1.50422 1 1.63961e-09 
1956 1 -55.8916 5.89074 1.7088 1 2.77388e-09 
1997 1 -53.4111 5.89076 1.91341 1 2.76923e-09 
2364 1 -50.9305 5.8908 2.118 1 1.78071e-09 
2368 1 -49.513 5.89084 0.0720552 1 4.42722e-09 
2405 1 -48.4499 5.89085 2.32262 1 3.57283e-09 
2772 1 -45.9694 5.89087 2.52727 1 2.54136e-09 
2775 1 -47.0325 5.89088 0.276701 1 1.84947e-09 
2776 1 -44.5519 5.89091 0.481362 1 2.70851e-09 
2813 1 -43.4888 5.89088 2.73194 1 2.10382e-09 
3182 1 -42.0713 5.8909 0.686018 1 2.10692e-09 
3184 1 -39.5907 5.89089 0.890695 1 6.20184e-09 
3588 1 -37.1101 5.89092 1.09537 1 5.22705e-09 
3590 1 -34.6295 5.89094 1.30009 1 3.22912e-09 
3994 1 -32.1489 5.89093 1.50483 1 8.38533e-09 
3996 1 -29.6683 5.89093 1.70958 1 1.36935e-08 
4401 1 -27.1877 5.89097 1.91436 1 2.0656e-08 
4404 1 -24.7071 5.89102 2.11921 1 6.74238e-08 
4770 1 -23.2896 5.89084 0.0733554 1 1.90967e-07 
4809 1 -22.2265 5.89116 2.32412 1 3.4456e-07 
4811 1 -20.809 5.89073 0.278163 1 7.03432e-07 
4812 1 -19.746 5.89149 2.52915 1 1.53793e-06 
5178 1 -18.3288 5.89059 0.482913 1 2.34673e-06 
5217 1 -17.2658 5.89208 2.73433 1 5.90053e-06 
5219 1 -15.8494 5.89048 0.687613 1 8.38061e-06 
5579 1 -13.3713 5.89036 0.892186 1 3.67953e-05 
5620 1 -10.8957 5.89043 1.09647 1 0.000203724 
5949 1 -8.42513 5.8913 1.30017 1 0.00144145 
5990 1 -5.96654 5.89364 1.50279 1 0.021316 
6263 1 -3.55505 5.85768 1.76322 1 0.257757 
6299 1 -1.15097 5.81427 1.98863 5 6.12534 
6590 2 1.19533 6.18185 2.06133 5 1.97647 
6653 2 3.57616 6.19967 1.92672 1 0.156635 
6670 2 6.02016 6.21038 1.71758 1 0.0143655 
6810 2 8.49434 6.21608 1.50978 1 0.00125387 
6826 2 10.9758 6.21795 1.30427 1 0.000125105 
7048 2 13.4578 6.21824 1.09942 1 1.80669e-05 
7063 2 15.9392 6.21811 0.894761 1 4.01373e-06 
7363 2 18.4202 6.21797 0.690144 1 1.11803e-06 
7365 2 19.8376 6.21834 2.73593 1 5.15334e-07 
7377 2 20.9009 6.21785 0.48553 1 3.01057e-07 
7734 2 22.3183 6.21799 2.53143 1 1.12533e-07 
7735 2 23.3815 6.21775 0.280919 1 9.63157e-08 
7737 2 24.7989 6.21776 2.32687 1 3.78199e-08 
7748 2 25.862 6.21768 0.0763125 1 2.81217e-08 
408 4 -75.8544 9.95534 1.50429 5 6.1952 
410 4 -77.0356 7.92307 0.685902 5 18.5856 
412 4 -74.5551 7.92307 0.890498 1 6.00021e-16 
713 4 -73.3738 9.95534 1.70888 1 4.0002e-16 
754 4 -70.8932 9.95534 1.91348 1 4e-16 
756 4 -72.0745 7.92307 1.09509 1 1.10006e-15 
758 4 -69.5939 7.92307 1.29969 1 7.61443e-10 
1101 4 -68.4126 9.95534 2.11807 1 4.02435e-09 
1105 1 -66.9952 9.95534 0.0720879 1 3.53414e-09 
1142 1 -65.9321 9.95534 2.32264 1 5.73601e-09 
1144 1 -67.1133 7.92307 1.50426 1 5.79827e-09 
1146 1 -64.6327 7.92303 1.70884 1 2.52517e-09 
1506 1 -63.4515 9.95528 2.52724 1 7.93719e-09 
1509 1 -64.5146 9.9553 0.276679 1 2.52017e-09 
1510 1 -62.034 9.95527 0.481274 1 1.0541e-08 
1547 1 -60.9709 9.95527 2.73181 1 3.8562e-09 
1549 1 -62.1521 7.923 1.91343 1 8.45254e-09 
1552 1 -59.6716 7.92301 2.11801 1 2.83861e-09 
1915 1 -59.5534 9.95529 0.685849 1 6.26346e-09 
1916 1 -58.2541 7.92302 0.072048 1 1.67991e-09 
1917 1 -57.0729 9.95529 0.890431 1 2.76715e-09 
1955 1 -57.191 7.92301 2.32259 1 3.50132e-09 
1957 1 -55.7735 7.92302 0.276635 1 1.80293e-09 
1958 1 -54.7104 7.92302 2.52719 1 2.45681e-09 
2323 1 -54.5923 9.95529 1.09502 1 4.34172e-09 
2324 1 -53.2929 7.92302 0.481236 1 4.24753e-09 
2325 1 -52.1117 9.95532 1.29962 1 2.58291e-09 
2363 1 -52.2298 7.92305 2.73179 1 1.73707e-09 
2365 1 -50.8124 7.92308 0.685824 1 4.08122e-09 
2731 1 -49.6312 9.95538 1.50421 1 9.36979e-09 
2732 1 -48.3318 7.92313 0.890455 1 2.10827e-09 
2733 1 -47.1506 9.95541 1.70887 1 1.59868e-09 
2773 1 -45.8512 7.92317 1.0951 1 4.69108e-09 
3138 1 -44.67 9.95543 1.91351 1 4.75577e-09 
3139 1 -43.3707 7.92317 1.29977 1 1.40449e-09 
3141 1 -42.1894 9.95543 2.11818 1 3.21661e-09 
3180 1 -40.8901 7.92316 1.50444 1 7.80451e-09 
3506 1 -40.7719 9.95545 0.0722733 1 4.6586e-09 
3544 1 -39.7089 9.95543 2.32286 1 4.88395e-09 
3545 1 -38.4095 7.92318 1.70911 1 3.92703e-09 
3546 1 -38.2914 9.95546 0.276946 1 5.57664e-09 
3547 1 -37.2283 9.95547 2.52754 1 3.58694e-09 
3586 1 -35.9289 7.9232 1.91381 1 4.51064e-09 
3912 1 -35.8108 9.95548 0.481644 1 4.01739e-09 
3950 1 -34.7477 9.95548 2.73225 1 6.7291e-09 
3951 1 -33.4483 7.9232 2.11853 1 8.79306e-09 
3952 1 -33.3302 9.95549 0.686375 1 4.64037e-09 
3955 1 -32.0308 7.92323 0.0726717 1 2.19579e-09 
3992 1 -30.9677 7.9232 2.32329 1 9.75277e-09 
4319 1 -30.8496 9.95549 0.891129 1 6.92119e-09 
4358 1 -28.4871 7.92322 2.52804 1 1.95545e-08 
4359 1 -28.3689 9.95549 1.09588 1 2.96253e-08 
4361 1 -29.5502 7.92323 0.277428 1 7.02898e-09 
4362 1 -27.0695 7.92322 0.482213 1 3.58468e-08 
4399 1 -26.0065 7.92327 2.73286 1 2.45449e-08 
4726 1 -25.8883 9.9555 1.30069 1 5.29892e-08 
4767 1 -23.4077 9.95555 1.50556 1 1.99753e-07 
4769 1 -24.5889 7.92321 0.687029 1 9.8982e-08 
4771 1 -22.1084 7.9232 0.891872 1 3.78286e-07 
5134 1 -20.9271 9.95568 1.71049 1 7.62281e-07 
5177 1 -19.628 7.92326 1.09673 1 1.43232e-06 
5175 1 -18.4468 9.956 1.91549 1 2.81109e-06 
5179 1 -17.1482 7.92343 1.30157 1 5.97993e-06 
5535 1 -15.9669 9.95654 2.12064 1 1.07601e-05 
5539 1 -14.55 9.95409 0.0735868 1 1.92126e-05 
5578 1 -14.6695 7.92375 1.50637 1 3.13786e-05 
5576 1 -13.4875 9.95725 2.32594 1 5.10348e-05 
5580 1 -12.1933 7.92422 1.71111 1 0.000196586 
5908 1 -12.0711 9.95373 0.278251 1 0.000124972 
5905 1 -11.0083 9.958 2.53118 1 0.000361752 
5909 1 -9.59222 9.95415 0.483243 1 0.00120775 
5948 1 -9.72169 7.92516 1.91622 1 0.00138558 
5946 1 -8.52605 9.95911 2.73464 1 0.00367955 
5951 1 -7.25938 7.92762 2.12483 1 0.0115824 
6222 1 -7.10803 9.95694 0.686395 1 0.0144466 
6223 1 -5.86027 7.92309 0.0694704 1 0.0497478 
6224 1 -4.59455 9.96099 0.861943 1 0.24259 
6262 1 -4.81661 7.92512 2.35625 1 0.108921 
6264 1 -3.47771 7.89254 0.351481 5 4.01388 
6265 1 -2.35801 7.88264 2.50014 5 3.61214 
6452 1 -1.97271 9.81953 0.968316 5 4.36983 
6578 2 -0.26373 8.11288 1.42826 5 2.28197 
6656 2 2.21322 8.25327 1.29316 1 0.100984 
6658 2 4.69638 8.24828 1.0993 1 0.0106082 
6813 2 7.18569 8.2484 0.89747 1 0.00135828 
6815 2 9.67245 8.24928 0.691795 1 0.000192964 
7028 2 11.0919 8.25279 2.73474 1 9.31835e-05 
7049 2 13.5753 8.25216 2.53068 1 1.9008e-05 
7051 2 12.1567 8.2497 0.486386 1 3.18566e-05 
7052 2 14.6392 8.24988 0.28136 1 6.79818e-06 
7343 2 16.0571 8.25133 2.32648 1 4.36986e-06 
7364 2 18.5381 8.25072 2.12212 1 1.03532e-06 
7366 2 17.1206 8.24997 0.0765418 1 1.80354e-06 
7715 2 21.0189 8.25034 1.91763 1 2.45468e-07 
7736 2 23.4995 8.2501 1.71307 1 5.55044e-08 
8114 2 25.9801 8.24998 1.50849 1 2.59153e-08 
375 4 -77.1538 11.9876 2.11807 5 24.7808 
677 4 -75.7363 11.9876 0.0721143 5 6.1952 
712 4 -74.6732 11.9876 2.32267 1 3.99999e-16 
714 4 -73.2557 11.9876 0.27671 1 7.99966e-16 
715 4 -72.1926 11.9876 2.52726 1 9.9996e-16 
1065 4 -70.7751 11.9876 0.481306 1 1.00012e-15 
1100 4 -69.712 11.9876 2.73186 1 5.25266e-10 
1102 4 -68.2945 11.9876 0.685902 1 6.30587e-09 
1470 1 -65.8139 11.9876 0.890464 1 4.60456e-09 
1507 1 -63.3334 11.9875 1.09506 1 1.25117e-08 
1875 1 -60.8528 11.9875 1.29963 1 2.58672e-09 
1913 1 -58.3722 11.9876 1.50422 1 1.63961e-09 
2283 1 -55.8916 11.9876 1.7088 1 2.77388e-09 
2321 1 -53.4111 11.9876 1.91341 1 2.76922e-09 
2689 1 -50.9305 11.9876 2.118 1 1.7807e-09 
2693 1 -49.513 11.9877 0.0720552 1 4.42722e-09 
2729 1 -48.4499 11.9877 2.32262 1 3.57283e-09 
3096 1 -45.9694 11.9877 2.52727 1 2.54137e-09 
3099 1 -47.0325 11.9877 0.276701 1 1.84948e-09 
3100 1 -44.5519 11.9877 0.481362 1 2.70851e-09 
3136 1 -43.4888 11.9877 2.73194 1 2.10384e-09 
3505 1 -42.0713 11.9877 0.686018 1 2.10691e-09 
3507 1 -39.5907 11.9877 0.890695 1 6.20185e-09 
3911 1 -37.1101 11.9877 1.09537 1 5.22705e-09 
3913 1 -34.6295 11.9878 1.30009 1 3.2291e-09 
4318 1 -32.1489 11.9877 1.50483 1 8.38535e-09 
4320 1 -29.6683 11.9878 1.70958 1 1.36935e-08 
4725 1 -27.1877 11.9878 1.91436 1 2.0656e-08 
4728 1 -24.7071 11.9878 2.11921 1 6.74238e-08 
5098 1 -23.2896 11.9877 0.0733554 1 1.90967e-07 
5133 1 -22.2265 11.988 2.32412 1 3.44561e-07 
5135 1 -20.809 11.9875 0.278163 1 7.03432e-07 
5136 1 -19.746 11.9883 2.52915 1 1.53792e-06 
5499 1 -18.3288 11.9874 0.482913 1 2.34674e-06 
5534 1 -17.2658 11.9889 2.73433 1 5.90055e-06 
5536 1 -15.8494 11.9873 0.687613 1 8.38058e-06 
5869 1 -13.3713 11.9872 0.892186 1 3.67954e-05 
5906 1 -10.8957 11.9873 1.09647 1 0.000203724 
6182 1 -8.42513 11.9881 1.30017 1 0.00144144 
6220 1 -5.96654 11.9905 1.50279 1 0.021316 
6418 1 -3.55505 11.9545 1.76322 1 0.257756 
6451 1 -1.15097 11.9111 1.98863 5 6.12534 
6636 2 0.730611 10.2299 0.823915 5 4.7312 
6637 2 1.19533 12.2787 2.06133 5 1.97647 
6657 2 3.34132 10.2904 0.527466 1 0.192088 
6765 2 3.57616 12.2965 1.92672 1 0.156634 
6792 2 4.78422 10.2604 2.54464 1 0.0389986 
6793 2 5.86493 10.2827 0.294171 1 0.0201181 
6794 2 6.02016 12.3072 1.71758 1 0.0143655 
6795 2 7.2957 10.2781 2.32913 1 0.00337744 
6814 2 8.36389 10.2803 0.0808419 1 0.00236858 
7004 2 8.49434 12.3129 1.50978 1 0.00125387 
7031 2 9.78819 10.2829 2.12186 1 0.000367166 
7032 2 10.9758 12.3148 1.30427 1 0.000125105 
7033 2 12.2741 10.2837 1.91711 1 5.30793e-05 
7320 2 13.4578 12.3151 1.09942 1 1.8067e-05 
7346 2 14.757 10.2834 1.71276 1 9.82464e-06 
7347 2 15.9392 12.3149 0.894761 1 4.01372e-06 
7348 2 17.2385 10.2829 1.50835 1 2.18526e-06 
7693 2 18.4202 12.3148 0.690144 1 1.11803e-06 
7695 2 19.8376 12.3152 2.73593 1 5.15333e-07 
7718 2 19.7195 10.2826 1.30386 1 5.26314e-07 
7719 2 20.9009 12.3147 0.48553 1 3.01055e-07 
7720 2 22.2002 10.2824 1.09929 1 1.26301e-07 
8092 2 22.3183 12.3148 2.53143 1 1.12533e-07 
8093 2 23.3815 12.3146 0.280919 1 9.63168e-08 
8095 2 24.7989 12.3146 2.32687 1 3.78198e-08 
8117 2 24.6808 10.2823 0.894697 1 4.19148e-08 
8118 2 25.862 12.3145 0.0763125 1 2.81216e-08 
676 4 -77.0356 14.0199 0.685902 5 18.5856 
678 4 -74.5551 14.0199 0.890498 1 9.00021e-16 
1064 4 -72.0745 14.0199 1.09509 1 1.40006e-15 
1066 4 -69.5939 14.0199 1.29969 1 7.614e-10 
1469 1 -67.1133 14.0199 1.50426 1 5.79889e-09 
1471 1 -64.6327 14.0198 1.70884 1 2.52511e-09 
1874 1 -62.1521 14.0198 1.91343 1 8.45249e-09 
1877 1 -59.6716 14.0198 2.11801 1 2.83857e-09 
2251 1 -58.2541 14.0198 0.072048 1 1.6799e-09 
2282 1 -57.191 14.0198 2.32259 1 3.5013e-09 
2284 1 -55.7735 14.0198 0.276635 1 1.80292e-09 
2285 1 -54.7104 14.0198 2.52719 1 2.45682e-09 
2657 1 -53.2929 14.0198 0.481236 1 4.24754e-09 
2688 1 -52.2298 14.0199 2.73179 1 1.73709e-09 
2690 1 -50.8124 14.0199 0.685824 1 4.08121e-09 
3064 1 -48.3318 14.02 0.890455 1 2.10827e-09 
3097 1 -45.8512 14.02 1.0951 1 4.69108e-09 
3469 1 -43.3707 14.02 1.29977 1 1.40448e-09 
3503 1 -40.8901 14.02 1.50444 1 7.80446e-09 
3875 1 -38.4095 14.02 1.70911 1 3.92701e-09 
3909 1 -35.9289 14.02 1.91381 1 4.51069e-09 
4280 1 -33.4483 14.02 2.11853 1 8.793e-09 
4284 1 -32.0308 14.02 0.0726717 1 2.19575e-09 
4316 1 -30.9677 14.02 2.32329 1 9.75278e-09 
4687 1 -28.4871 14.02 2.52804 1 1.95545e-08 
4690 1 -29.5502 14.02 0.277428 1 7.02901e-09 
4691 1 -27.0695 14.02 0.482213 1 3.58469e-08 
4723 1 -26.0065 14.0201 2.73286 1 2.4545e-08 
5097 1 -24.5889 14.02 0.687029 1 9.89819e-08 
5099 1 -22.1084 14.02 0.891872 1 3.78285e-07 
5498 1 -19.628 14.0201 1.09673 1 1.43233e-06 
5500 1 -17.1482 14.0203 1.30157 1 5.9799e-06 
5868 1 -14.6695 14.0206 1.50637 1 3.13787e-05 
5870 1 -12.1933 14.021 1.71111 1 0.000196585 
6181 1 -9.72169 14.022 1.91621 1 0.00138558 
6184 1 -7.25938 14.0244 2.12483 1 0.0115823 
6386 1 -5.86027 14.0199 0.069471 1 0.0497462 
6417 1 -4.81661 14.0219 2.35625 1 0.108918 
6419 1 -3.47772 13.9894 0.351483 5 4.01391 
6420 1 -2.35801 13.9795 2.50015 5 3.61214 
6613 2 -0.26373 14.2097 1.42826 5 2.28197 
6768 2 2.21322 14.3501 1.29316 1 0.100983 
6770 2 4.69638 14.3451 1.0993 1 0.0106082 
7007 2 7.18569 14.3452 0.89747 1 0.00135829 
7009 2 9.67245 14.3461 0.691795 1 0.000192962 
7288 2 11.0919 14.3496 2.73474 1 9.31834e-05 
7321 2 13.5753 14.349 2.53068 1 1.9008e-05 
7323 2 12.1567 14.3465 0.486386 1 3.1857e-05 
7324 2 14.6392 14.3467 0.28136 1 6.79813e-06 
7661 2 16.0571 14.3481 2.32648 1 4.36987e-06 
7694 2 18.5381 14.3475 2.12212 1 1.03532e-06 
7696 2 17.1206 14.3468 0.0765418 1 1.80354e-06 
8061 2 21.0189 14.3472 1.91763 1 2.45468e-07 
8094 2 23.4995 14.3469 1.71307 1 5.55045e-08 
8467 2 25.9801 14.3468 1.50849 1 2.59151e-08 
674 4 -75.8544 16.0522 1.50429 5 6.1952 
1032 4 -73.3738 16.0522 1.70888 1 4.0002e-16 
1062 4 -70.8932 16.0522 1.91348 1 4e-16 
1435 4 -68.4126 16.0522 2.11807 1 4.02436e-09 
1439 1 -66.9952 16.0522 0.0720879 1 3.53461e-09 
1467 1 -65.9321 16.0522 2.32264 1 5.73641e-09 
1840 1 -63.4515 16.0521 2.52724 1 7.93721e-09 
1843 1 -64.5146 16.0521 0.276679 1 2.52026e-09 
1844 1 -62.034 16.0521 0.481274 1 1.05411e-08 
1872 1 -60.9709 16.0521 2.73181 1 3.8562e-09 
2250 1 -59.5534 16.0521 0.685849 1 6.26345e-09 
2252 1 -57.0729 16.0521 0.890431 1 2.76714e-09 
2656 1 -54.5923 16.0521 1.09502 1 4.34172e-09 
2658 1 -52.1117 16.0521 1.29962 1 2.5829e-09 
3063 1 -49.6312 16.0522 1.50421 1 9.36983e-09 
3065 1 -47.1506 16.0522 1.70887 1 1.5987e-09 
3468 1 -44.67 16.0523 1.91351 1 4.75579e-09 
3471 1 -42.1894 16.0522 2.11818 1 3.2166e-09 
3847 1 -40.7719 16.0523 0.0722733 1 4.65868e-09 
3874 1 -39.7089 16.0523 2.32286 1 4.88391e-09 
3876 1 -38.2914 16.0523 0.276946 1 5.57664e-09 
3877 1 -37.2283 16.0523 2.52754 1 3.58695e-09 
4252 1 -35.8108 16.0523 0.481644 1 4.01738e-09 
4279 1 -34.7477 16.0523 2.73225 1 6.72911e-09 
4281 1 -33.3302 16.0523 0.686375 1 4.6404e-09 
4659 1 -30.8496 16.0523 0.891129 1 6.92115e-09 
4688 1 -28.3689 16.0523 1.09588 1 2.96252e-08 
5065 1 -25.8883 16.0523 1.30069 1 5.2989e-08 
5095 1 -23.4077 16.0524 1.50556 1 1.99754e-07 
5466 1 -20.9271 16.0525 1.71049 1 7.62277e-07 
5496 1 -18.4468 16.0528 1.91549 1 2.81111e-06 
5834 1 -15.9669 16.0534 2.12064 1 1.076e-05 
5838 1 -14.55 16.0509 0.0735868 1 1.9213e-05 
5866 1 -13.4875 16.0541 2.32594 1 5.10353e-05 
6150 1 -12.0711 16.0505 0.278251 1 0.000124969 
6147 1 -11.0083 16.0548 2.53118 1 0.000361749 
6151 1 -9.59222 16.051 0.483243 1 0.00120777 
6179 1 -8.52605 16.0559 2.73464 1 0.00367957 
6385 1 -7.10803 16.0538 0.686395 1 0.0144465 
6387 1 -4.59455 16.0578 0.861943 1 0.24259 
6533 1 -1.97271 15.9164 0.968316 5 4.36985 
6736 2 0.730611 16.3267 0.823915 5 4.73119 
6769 2 3.34132 16.3872 0.527466 1 0.192089 
6974 2 4.78422 16.3572 2.54464 1 0.0389987 
6975 2 5.86493 16.3795 0.294171 1 0.0201181 
6977 2 7.2957 16.3749 2.32913 1 0.00337743 
7008 2 8.36389 16.3772 0.0808419 1 0.00236858 
7291 2 9.78819 16.3797 2.12186 1 0.000367165 
7293 2 12.2741 16.3805 1.91711 1 5.30797e-05 
7664 2 14.757 16.3802 1.71276 1 9.82453e-06 
7666 2 17.2385 16.3798 1.50835 1 2.18527e-06 
8064 2 19.7195 16.3794 1.30386 1 5.26315e-07 
8066 2 22.2002 16.3792 1.09929 1 1.263e-07 
8470 2 24.6808 16.3791 0.894697 1 4.19153e-08 
649 4 -77.1538 18.0844 2.11807 5 24.7808 
1007 4 -77.0356 20.1167 0.685902 5 18.5856 
1008 4 -75.7363 18.0844 0.0721143 5 6.1952 
1009 4 -74.5551 20.1167 0.890498 1 9.00021e-16 
1031 4 -74.6732 18.0844 2.32267 1 9.99996e-17 
1033 4 -73.2557 18.0844 0.27671 1 4.99967e-16 
1034 4 -72.1926 18.0844 2.52726 1 6.9996e-16 
1410 4 -72.0745 20.1167 1.09509 1 1.40006e-15 
1411 4 -70.7751 18.0844 0.481306 1 7.0012e-16 
1412 4 -69.5939 20.1167 1.29969 1 7.61366e-10 
1434 4 -69.712 18.0844 2.73186 1 5.25343e-10 
1436 4 -68.2945 18.0844 0.685902 1 6.30573e-09 
1815 1 -67.1133 20.1167 1.50426 1 5.79747e-09 
1816 1 -65.8139 18.0844 0.890464 1 4.60485e-09 
1817 1 -64.6327 20.1167 1.70884 1 2.52515e-09 
1841 1 -63.3334 18.0844 1.09506 1 1.25117e-08 
2221 1 -62.1521 20.1166 1.91343 1 8.45254e-09 
2222 1 -60.8528 18.0844 1.29963 1 2.58673e-09 
2224 1 -59.6716 20.1166 2.11801 1 2.83861e-09 
2248 1 -58.3722 18.0844 1.50422 1 1.63962e-09 
2608 1 -58.2541 20.1167 0.072048 1 1.67992e-09 
2627 1 -57.191 20.1167 2.32259 1 3.50131e-09 
2628 1 -55.8916 18.0844 1.7088 1 2.77386e-09 
2629 1 -55.7735 20.1167 0.276635 1 1.80292e-09 
2630 1 -54.7104 20.1167 2.52719 1 2.45678e-09 
2654 1 -53.4111 18.0844 1.91341 1 2.76922e-09 
3013 1 -53.2929 20.1167 0.481236 1 4.24756e-09 
3032 1 -52.2298 20.1167 2.73179 1 1.73708e-09 
3033 1 -50.9305 18.0844 2.118 1 1.7807e-09 
3034 1 -50.8124 20.1167 0.685824 1 4.08122e-09 
3037 1 -49.513 18.0845 0.0720552 1 4.42722e-09 
3061 1 -48.4499 18.0845 2.32262 1 3.57284e-09 
3418 1 -48.3318 20.1168 0.890455 1 2.10827e-09 
3438 1 -45.9694 18.0845 2.52727 1 2.54137e-09 
3439 1 -45.8512 20.1168 1.0951 1 4.69107e-09 
3441 1 -47.0325 18.0845 0.276701 1 1.84948e-09 
3442 1 -44.5519 18.0845 0.481362 1 2.70851e-09 
3466 1 -43.4888 18.0845 2.73194 1 2.10384e-09 
3822 1 -43.3707 20.1168 1.29977 1 1.40449e-09 
3844 1 -40.8901 20.1168 1.50444 1 7.80455e-09 
3846 1 -42.0713 18.0845 0.686018 1 2.10692e-09 
3848 1 -39.5907 18.0845 0.890695 1 6.20184e-09 
4227 1 -38.4095 20.1168 1.70911 1 3.92702e-09 
4249 1 -35.9289 20.1168 1.91381 1 4.51063e-09 
4251 1 -37.1101 18.0846 1.09537 1 5.22705e-09 
4253 1 -34.6295 18.0846 1.30009 1 3.22913e-09 
4632 1 -33.4483 20.1168 2.11853 1 8.79301e-09 
4636 1 -32.0308 20.1169 0.0726717 1 2.19579e-09 
4656 1 -30.9677 20.1168 2.32329 1 9.75273e-09 
4658 1 -32.1489 18.0846 1.50483 1 8.38532e-09 
4660 1 -29.6683 18.0846 1.70958 1 1.36935e-08 
5038 1 -28.4871 20.1169 2.52804 1 1.95544e-08 
5041 1 -29.5502 20.1169 0.277428 1 7.02897e-09 
5064 1 -27.1877 18.0846 1.91436 1 2.0656e-08 
5042 1 -27.0695 20.1169 0.482213 1 3.58468e-08 
5062 1 -26.0065 20.1169 2.73286 1 2.45449e-08 
5067 1 -24.7071 18.0847 2.11921 1 6.74236e-08 
5441 1 -24.5889 20.1168 0.687029 1 9.89818e-08 
5442 1 -23.2896 18.0845 0.0733554 1 1.90967e-07 
5443 1 -22.1084 20.1168 0.891872 1 3.78287e-07 
5465 1 -22.2265 18.0848 2.32412 1 3.44562e-07 
5467 1 -20.809 18.0844 0.278163 1 7.03431e-07 
5468 1 -19.746 18.0851 2.52915 1 1.53792e-06 
5809 1 -19.628 20.1169 1.09673 1 1.43232e-06 
5810 1 -18.3288 18.0842 0.482913 1 2.34673e-06 
5811 1 -17.1482 20.1171 1.30157 1 5.97993e-06 
5833 1 -17.2658 18.0857 2.73433 1 5.90055e-06 
5835 1 -15.8494 18.0841 0.687613 1 8.38064e-06 
6122 1 -14.6695 20.1174 1.50637 1 3.13788e-05 
6123 1 -13.3713 18.084 0.892186 1 3.6795e-05 
6124 1 -12.1933 20.1179 1.71111 1 0.000196584 
6148 1 -10.8957 18.0841 1.09647 1 0.000203727 
6356 1 -9.72169 20.1188 1.91622 1 0.0013856 
6357 1 -8.42513 18.0849 1.30017 1 0.00144142 
6359 1 -7.25938 20.1213 2.12483 1 0.0115824 
6383 1 -5.96654 18.0873 1.50279 1 0.0213163 
6491 1 -5.86027 20.1167 0.06947 1 0.0497489 
6510 1 -4.81661 20.1188 2.35626 1 0.108924 
6511 1 -3.55505 18.0513 1.76322 1 0.257757 
6512 1 -3.47771 20.0862 0.351479 5 4.01385 
6513 1 -2.35801 20.0763 2.50014 5 3.61213 
6532 1 -1.15097 18.0079 1.98863 5 6.12534 
6701 2 -0.26373 20.3065 1.42826 5 2.28197 
6737 2 1.19533 18.3755 2.06133 5 1.97647 
6935 2 3.57616 18.3933 1.92672 1 0.156635 
6976 2 6.02016 18.404 1.71758 1 0.0143655 
7252 2 8.49434 18.4097 1.50978 1 0.00125388 
7292 2 10.9758 18.4116 1.30427 1 0.000125105 
7626 2 13.4578 18.4119 1.09942 1 1.8067e-05 
7665 2 15.9392 18.4117 0.894761 1 4.01373e-06 
8027 2 18.4202 18.4116 0.690144 1 1.11803e-06 
8029 2 19.8376 18.412 2.73593 1 5.15333e-07 
8065 2 20.9009 18.4115 0.48553 1 3.01057e-07 
8433 2 22.3183 18.4116 2.53143 1 1.12533e-07 
8434 2 23.3815 18.4114 0.280919 1 9.63159e-08 
8436 2 24.7989 18.4114 2.32687 1 3.78198e-08 
8471 2 25.862 18.4113 0.0763125 1 2.81217e-08 
1005 4 -75.8544 22.149 1.50429 5 6.1952 
1390 4 -73.3738 22.149 1.70888 1 7.0002e-16 
1408 4 -70.8932 22.149 1.91348 1 7e-16 
1793 4 -68.4126 22.149 2.11807 1 4.02449e-09 
1797 1 -66.9952 22.149 0.0720879 1 3.53444e-09 
1813 1 -65.9321 22.149 2.32264 1 5.73644e-09 
2199 1 -63.4515 22.1489 2.52724 1 7.93723e-09 
2202 1 -64.5146 22.1489 0.276679 1 2.52022e-09 
2203 1 -62.034 22.1489 0.481274 1 1.05411e-08 
2219 1 -60.9709 22.1489 2.73181 1 3.85621e-09 
2607 1 -59.5534 22.1489 0.685849 1 6.26347e-09 
2609 1 -57.0729 22.1489 0.890431 1 2.76714e-09 
3012 1 -54.5923 22.1489 1.09502 1 4.34174e-09 
3014 1 -52.1117 22.149 1.29962 1 2.58291e-09 
3417 1 -49.6312 22.149 1.50421 1 9.3698e-09 
3419 1 -47.1506 22.149 1.70887 1 1.59869e-09 
3821 1 -44.67 22.1491 1.91351 1 4.75576e-09 
3824 1 -42.1894 22.1491 2.11818 1 3.21662e-09 
4211 1 -40.7719 22.1491 0.0722733 1 4.65866e-09 
4226 1 -39.7089 22.1491 2.32286 1 4.88388e-09 
4228 1 -38.2914 22.1491 0.276946 1 5.57662e-09 
4229 1 -37.2283 22.1491 2.52754 1 3.58694e-09 
4616 1 -35.8108 22.1491 0.481644 1 4.01738e-09 
4631 1 -34.7477 22.1491 2.73225 1 6.72905e-09 
4633 1 -33.3302 22.1491 0.686375 1 4.64039e-09 
5022 1 -30.8496 22.1491 0.891129 1 6.9212e-09 
5039 1 -28.3689 22.1491 1.09588 1 2.96252e-08 
5421 1 -25.8883 22.1491 1.30069 1 5.29892e-08 
5439 1 -23.4077 22.1492 1.50556 1 1.99752e-07 
5789 1 -20.9271 22.1493 1.71049 1 7.62285e-07 
5807 1 -18.4468 22.1496 1.91549 1 2.81107e-06 
6100 1 -15.9669 22.1502 2.12064 1 1.07602e-05 
6104 1 -14.55 22.1477 0.0735868 1 1.92125e-05 
6120 1 -13.4875 22.1509 2.32594 1 5.10345e-05 
6337 1 -12.0711 22.1474 0.278251 1 0.000124974 
6334 1 -11.0083 22.1516 2.53118 1 0.000361754 
6338 1 -9.59222 22.1478 0.483243 1 0.00120773 
6354 1 -8.52605 22.1527 2.73464 1 0.00367954 
6490 1 -7.10803 22.1506 0.686395 1 0.0144467 
6492 1 -4.59455 22.1546 0.861943 1 0.242589 
6565 1 -1.97271 22.0132 0.968315 5 4.36981 
6895 2 0.730611 22.4235 0.823915 5 4.73121 
6938 2 2.21322 20.4469 1.29316 1 0.100984 
6939 2 3.34132 22.484 0.527466 1 0.192088 
6940 2 4.69638 20.4419 1.0993 1 0.0106082 
7211 2 4.78422 22.4541 2.54464 1 0.0389986 
7212 2 5.86493 22.4763 0.294171 1 0.0201182 
7214 2 7.2957 22.4717 2.32913 1 0.00337744 
7255 2 7.18569 20.442 0.89747 1 0.00135828 
7256 2 8.36389 22.474 0.0808419 1 0.00236858 
7257 2 9.67245 20.4429 0.691795 1 0.000192965 
7586 2 9.78819 22.4766 2.12186 1 0.000367167 
7583 2 11.0919 20.4464 2.73474 1 9.31841e-05 
7588 2 12.2741 22.4773 1.91711 1 5.30792e-05 
7627 2 13.5753 20.4458 2.53068 1 1.90079e-05 
7629 2 12.1567 20.4433 0.486386 1 3.18565e-05 
7630 2 14.6392 20.4435 0.28136 1 6.79819e-06 
7984 2 16.0571 20.445 2.32648 1 4.36988e-06 
7987 2 14.757 22.477 1.71276 1 9.82465e-06 
7989 2 17.2385 22.4766 1.50835 1 2.18525e-06 
8028 2 18.5381 20.4444 2.12212 1 1.03532e-06 
8030 2 17.1206 20.4436 0.0765418 1 1.80354e-06 
8391 2 21.0189 20.444 1.91763 1 2.45469e-07 
8394 2 19.7195 22.4763 1.30386 1 5.26315e-07 
8396 2 22.2002 22.4761 1.09929 1 1.26301e-07 
8435 2 23.4995 20.4437 1.71307 1 5.55044e-08 
8798 2 25.9801 20.4436 1.50849 1 2.59152e-08 
8801 2 24.6808 22.4759 0.894697 1 4.19148e-08 
989 4 -77.1538 24.1813 2.11807 5 24.7808 
1378 4 -75.7363 24.1813 0.0721143 5 6.1952 
1389 4 -74.6732 24.1813 2.32267 1 9.99996e-17 
1391 4 -73.2557 24.1813 0.27671 1 4.99967e-16 
1392 4 -72.1926 24.1813 2.52726 1 6.9996e-16 
1781 4 -70.7751 24.1813 0.481306 1 7.0012e-16 
1792 4 -69.712 24.1813 2.73186 1 5.25394e-10 
1794 4 -68.2945 24.1813 0.685902 1 6.30541e-09 
2187 1 -65.8139 24.1812 0.890464 1 4.60472e-09 
2200 1 -63.3334 24.1812 1.09506 1 1.25117e-08 
2591 1 -60.8528 24.1812 1.29963 1 2.5867e-09 
2605 1 -58.3722 24.1812 1.50422 1 1.6396e-09 
2996 1 -55.8916 24.1812 1.7088 1 2.77388e-09 
3010 1 -53.4111 24.1812 1.91341 1 2.76923e-09 
3399 1 -50.9305 24.1813 2.118 1 1.78071e-09 
3403 1 -49.513 24.1813 0.0720552 1 4.42722e-09 
3415 1 -48.4499 24.1813 2.32262 1 3.57283e-09 
3803 1 -45.9694 24.1813 2.52727 1 2.54136e-09 
3806 1 -47.0325 24.1813 0.276701 1 1.84947e-09 
3807 1 -44.5519 24.1814 0.481362 1 2.70851e-09 
3819 1 -43.4888 24.1813 2.73194 1 2.10383e-09 
4210 1 -42.0713 24.1814 0.686018 1 2.10693e-09 
4212 1 -39.5907 24.1814 0.890695 1 6.20184e-09 
4615 1 -37.1101 24.1814 1.09537 1 5.22706e-09 
4617 1 -34.6295 24.1814 1.30009 1 3.22911e-09 
5021 1 -32.1489 24.1814 1.50483 1 8.38532e-09 
5023 1 -29.6683 24.1814 1.70958 1 1.36935e-08 
5420 1 -27.1877 24.1814 1.91436 1 2.06559e-08 