ITEM: TIMESTEP
0
ITEM: NUMBER OF ATOMS
35144
ITEM: BOX BOUNDS ss pp pp
-64.0084 115.875
0 41.6492
0 51.0096
ITEM: ATOMS id type x y z c_cna c_csd 
12 4 -63.2898 0.327095 1.09117 5 18.5856 
16 4 -61.1342 1.51707 0.726812 1 1.39956e-15 
94 4 -58.9787 0.327095 1.09117 1 1.10004e-15 
95 4 -56.8231 1.51707 0.726812 1 1.19956e-15 
271 4 -54.6676 0.327095 1.09117 1 1.51291e-08 
275 1 -52.512 1.51701 0.726782 1 2.53407e-09 
560 1 -50.3565 0.326966 1.0911 1 3.58525e-09 
561 1 -48.2009 1.51688 0.726711 1 2.11172e-09 
947 1 -46.0454 0.326819 1.09102 1 3.82927e-09 
951 1 -43.8898 1.51673 0.72665 1 1.93516e-09 
1444 1 -41.7343 0.326687 1.091 1 1.1441e-09 
1445 1 -39.5788 1.51662 0.726653 1 3.53625e-09 
2041 1 -37.4232 0.32658 1.09099 1 7.10631e-09 
2045 1 -35.2677 1.5165 0.726602 1 1.65276e-08 
2750 1 -33.1123 0.326403 1.0909 1 2.26992e-08 
2751 1 -30.9568 1.51629 0.726486 1 4.55984e-08 
3541 1 -28.8013 0.326186 1.09079 1 8.78e-08 
3545 1 -26.6458 1.51608 0.726314 1 1.83199e-07 
4379 1 -24.4903 0.32607 1.09068 1 3.44423e-07 
4380 1 -22.3348 1.51607 0.72613 1 7.00089e-07 
5216 1 -20.1791 0.326371 1.09064 1 1.55394e-06 
5220 1 -18.0232 1.51676 0.725852 1 3.43325e-06 
6059 1 -15.867 0.328085 1.09047 1 1.06802e-05 
6060 1 -13.7099 1.51995 0.725095 1 3.65153e-05 
6896 1 -11.5534 0.333762 1.08884 1 0.000175603 
6900 1 -9.3909 1.52859 0.722612 1 0.000468017 
7739 1 -7.2392 0.342087 1.08383 1 0.00125453 
7740 1 -5.06971 1.5325 0.71127 1 0.0104408 
8576 1 -2.88588 0.353671 1.03283 1 0.376185 
8580 3 -0.264953 1.50176 0.523781 5 7.35011 
14620 2 1.65638 0.506575 2.30567 5 3.87301 
15321 2 2.37027 0.0178253 0.123487 5 0.530385 
15324 2 2.1398 2.41306 0.835202 5 1.70351 
15326 2 4.46799 1.23101 0.508296 1 0.0626079 
15328 2 5.9252 0.631231 2.43311 1 0.00773865 
16114 2 6.63668 2.41756 0.853827 1 0.00436111 
16115 2 6.64249 0.0430124 0.122579 1 0.00371993 
16116 2 8.80362 1.23193 0.481341 1 0.00042458 
16127 2 10.243 0.637589 2.42218 1 0.000154816 
16949 2 10.9678 0.0420297 0.11684 1 0.000106537 
16952 2 10.9634 2.42035 0.842151 1 5.64011e-05 
16954 2 13.1233 1.23039 0.478569 1 1.97027e-05 
16956 2 14.5605 0.634171 2.42157 1 1.42024e-05 
17789 2 15.2793 2.41912 0.842244 1 7.80193e-06 
17790 2 15.2805 0.0394307 0.114694 1 3.51186e-06 
17791 2 17.436 1.22868 0.478432 1 2.57865e-06 
17802 2 18.8733 0.633075 2.42178 1 2.41472e-06 
18629 2 19.5923 0.0384034 0.114483 1 1.25031e-06 
18632 2 19.592 2.41814 0.842725 1 1.18786e-06 
18634 2 21.748 1.22811 0.478629 1 6.03664e-07 
18636 2 23.1852 0.632952 2.42193 1 4.21711e-07 
19469 2 23.9037 2.41795 0.842999 1 2.32251e-07 
19470 2 23.9038 0.0381127 0.114427 1 3.06222e-07 
10 4 -62.5713 4.49201 1.94133 5 12.3904 
14 4 -63.2898 2.70705 0.362457 5 18.5856 
89 4 -60.4157 3.30204 2.30568 1 5.99981e-16 
90 4 -58.9787 2.70705 0.362457 1 1.20353e-15 
91 4 -58.2602 4.49201 1.94133 1 6.01202e-16 
263 4 -56.1046 3.30204 2.30568 1 3.18452e-09 
268 1 -53.9491 4.49198 1.94132 1 1.78686e-09 
273 4 -54.6676 2.70705 0.362457 1 1.38505e-08 
555 1 -51.7935 3.30195 2.30565 1 1.84584e-09 
556 1 -50.3565 2.70693 0.362399 1 2.63591e-09 
557 1 -49.638 4.49187 1.94127 1 1.34933e-09 
939 1 -47.4824 3.30182 2.30558 1 1.58515e-09 
949 1 -46.0454 2.70679 0.362321 1 2.24343e-09 
944 1 -45.3269 4.49173 1.9412 1 3.40323e-09 
1439 1 -43.1713 3.30168 2.30553 1 2.93147e-09 
1440 1 -41.7343 2.70665 0.362304 1 2.69175e-09 
1441 1 -41.0158 4.49158 1.94118 1 4.50824e-09 
2033 1 -38.8602 3.30156 2.30552 1 4.203e-09 
2038 1 -36.7047 4.49149 1.94114 1 1.11093e-08 
2043 1 -37.4232 2.70655 0.362286 1 1.00755e-08 
2745 1 -34.5492 3.30145 2.30544 1 1.39187e-08 
2746 1 -33.1123 2.70639 0.362186 1 2.78762e-08 
2747 1 -32.3936 4.49134 1.94099 1 2.55688e-08 
3533 1 -30.2381 3.30126 2.30527 1 4.94772e-08 
3538 1 -28.0825 4.49112 1.94071 1 6.48745e-08 
3543 1 -28.8013 2.70615 0.362007 1 9.04462e-08 
4374 1 -25.9269 3.3011 2.30494 1 1.53247e-07 
4375 1 -24.4903 2.70599 0.361741 1 3.45757e-07 
4376 1 -23.7711 4.49099 1.94024 1 3.09954e-07 
5208 1 -21.6152 3.30116 2.30444 1 1.01375e-06 
5213 1 -19.4588 4.49111 1.93949 1 2.46164e-06 
5218 1 -20.1791 2.7061 0.361392 1 1.54033e-06 
6054 1 -17.3022 3.30187 2.30351 1 9.03064e-06 
6055 1 -15.8668 2.70738 0.360711 1 9.92856e-06 
6056 1 -15.144 4.49201 1.93814 1 2.24046e-05 
6888 1 -12.9849 3.30435 2.30201 1 9.09174e-05 
6893 1 -10.8225 4.49633 1.93661 1 0.000185061 
6898 1 -11.5501 2.7125 0.359731 1 9.20418e-05 
7734 1 -8.66088 3.31047 2.29914 1 0.000826802 
7735 1 -7.22201 2.72478 0.354939 1 0.00216854 
7736 1 -6.49659 4.51585 1.9315 1 0.00678896 
8568 1 -4.37182 3.32777 2.27942 1 0.0474933 
8578 1 -2.89378 2.69646 0.309319 1 0.332486 
8573 1 -2.21952 4.53974 1.89429 1 0.272639 
14618 3 -0.0376336 3.44291 1.99978 5 6.57128 
15323 2 2.24912 4.71365 1.63971 5 1.14536 
15327 2 4.43722 3.58013 1.22613 1 0.0577107 
16121 2 6.63453 4.78354 1.57204 1 0.00536657 
16123 2 8.80244 3.6074 1.20797 1 0.000417352 
16951 2 10.9615 4.79806 1.57063 1 6.93068e-05 
16955 2 13.1212 3.60915 1.20597 1 2.1454e-05 
17796 2 15.279 4.79795 1.57071 1 9.14444e-06 
17798 2 17.4358 3.60818 1.20674 1 2.88825e-06 
18631 2 19.5923 4.7977 1.57152 1 9.15848e-07 
18635 2 21.748 3.60785 1.20726 1 4.08721e-07 
19476 2 23.904 4.79775 1.57184 1 1.17141e-07 
9 4 -62.5713 6.87197 1.21262 5 12.3904 
78 4 -60.4157 5.68199 1.57697 1 8.00003e-16 
83 4 -58.2602 6.87197 1.21262 1 1.20246e-15 
266 4 -56.1046 5.68199 1.57697 1 2.77238e-09 
267 1 -53.9491 6.87193 1.21261 1 1.74468e-09 
544 1 -51.7935 5.68191 1.57694 1 9.26995e-10 
549 1 -49.638 6.87183 1.21257 1 1.40612e-09 
942 1 -47.4824 5.68178 1.57689 1 1.46228e-09 
943 1 -45.3269 6.87169 1.21251 1 1.86062e-09 
1428 1 -43.1713 5.68163 1.57684 1 1.21178e-09 
1433 1 -41.0158 6.87153 1.21248 1 5.56261e-09 
2036 1 -38.8602 5.6815 1.57682 1 6.68162e-09 
2037 1 -36.7047 6.87142 1.21242 1 1.32591e-08 
2734 1 -34.5491 5.6814 1.5767 1 1.40653e-08 
2739 1 -32.3936 6.87126 1.21222 1 1.51306e-08 
3536 1 -30.238 5.68119 1.57648 1 3.48073e-08 
3537 1 -28.0824 6.87102 1.21189 1 5.21431e-08 
4363 1 -25.9268 5.68097 1.57606 1 1.16688e-07 
4368 1 -23.771 6.87078 1.21139 1 2.92692e-07 
5211 1 -21.615 5.68084 1.57547 1 7.46957e-07 
5212 1 -19.4588 6.87058 1.21069 1 1.99826e-06 
6043 1 -17.3019 5.68093 1.57445 1 6.37071e-06 
6048 1 -15.1444 6.87062 1.20963 1 1.51483e-05 
6891 1 -12.9846 5.68228 1.57296 1 4.61735e-05 
6892 1 -10.8241 6.8736 1.20886 1 0.000114139 
7723 1 -8.65851 5.69273 1.57287 1 0.000685493 
7728 1 -6.48618 6.89794 1.21576 1 0.00439652 
8571 1 -4.31428 5.74609 1.57998 1 0.052743 
8572 1 -2.06357 7.03916 1.25975 5 3.78706 
9399 3 0.00684185 5.79771 1.5675 5 3.63892 
15322 2 0.784651 7.75156 0.312012 5 3.75213 
15334 2 2.38326 7.09757 2.24538 5 1.02173 
15336 2 4.48876 5.95238 1.92747 1 0.0549356 
16118 2 5.19276 7.76906 0.360085 1 0.00963545 
16119 2 6.63477 7.17321 2.29801 1 0.00216424 
16124 2 8.79698 5.98391 1.93536 1 0.000607863 
16950 2 9.52532 7.76853 0.357709 1 0.000155053 
16964 2 10.9613 7.1748 2.29906 1 0.000241868 
16966 2 13.1213 5.98705 1.93495 1 3.40779e-05 
17793 2 13.8439 7.7718 0.357624 1 1.51491e-05 
17794 2 15.28 7.17655 2.30011 1 1.36742e-05 
17799 2 17.4363 5.98735 1.93577 1 3.30458e-06 
18630 2 18.1562 7.77242 0.357804 1 1.55169e-06 
18644 2 19.5929 7.17723 2.30074 1 1.20742e-06 
18646 2 21.7484 5.98755 1.93627 1 2.99093e-07 
19473 2 22.4674 7.77256 0.357775 1 3.17405e-07 
19474 2 23.9043 7.17757 2.30086 1 1.37946e-07 
4 4 -64.0083 9.84691 2.42713 5 30.976 
6 4 -62.5713 9.25192 0.483909 5 12.3904 
68 4 -59.6972 9.84691 2.42713 1 8.0062e-16 
81 4 -60.4157 8.06195 0.848263 1 7.00563e-16 
82 4 -58.2602 9.25192 0.483909 1 6.98683e-16 
251 4 -56.1046 8.06195 0.848263 1 2.56678e-09 
252 4 -55.3861 9.84691 2.42713 1 7.87316e-09 
255 1 -53.9491 9.25189 0.483913 1 2.36276e-09 
547 1 -51.7935 8.06186 0.848246 1 7.18153e-10 
530 1 -51.075 9.84679 2.42712 1 1.22374e-09 
548 1 -49.638 9.25178 0.483884 1 1.41478e-09 
927 1 -47.4824 8.06174 0.8482 1 1.06376e-09 
928 1 -46.7639 9.84666 2.42708 1 1.39325e-09 
931 1 -45.3269 9.25165 0.483821 1 2.45149e-09 
1414 1 -42.4528 9.84654 2.42702 1 5.30733e-09 
1431 1 -43.1713 8.06159 0.848155 1 2.45763e-09 
1432 1 -41.0158 9.25148 0.483774 1 4.08998e-09 
2021 1 -38.8602 8.06144 0.848099 1 5.04254e-09 
2022 1 -38.1417 9.84637 2.42694 1 6.09081e-09 
2025 1 -36.7047 9.25135 0.483684 1 9.89455e-09 
2720 1 -33.8305 9.84622 2.42676 1 1.12921e-08 
2737 1 -34.5491 8.06131 0.847955 1 1.27633e-08 
2738 1 -32.3936 9.25116 0.483462 1 2.005e-08 
3521 1 -30.238 8.06109 0.847701 1 3.63369e-08 
3522 1 -29.5192 9.84599 2.42648 1 5.58414e-08 
3525 1 -28.0824 9.2509 0.483144 1 7.49645e-08 
4366 1 -25.9267 8.06082 0.847271 1 1.41682e-07 
4349 1 -25.2077 9.84571 2.42604 1 2.93938e-07 
4367 1 -23.771 9.25058 0.482739 1 3.37746e-07 
5196 1 -21.6151 8.06053 0.846783 1 7.37691e-07 
5197 1 -20.8956 9.84537 2.42559 1 1.80527e-06 
5200 1 -19.4591 9.25023 0.482364 1 1.68656e-06 
6029 1 -16.5821 9.84474 2.42508 1 1.23083e-05 
6046 1 -17.3023 8.0602 0.846111 1 4.90092e-06 
6047 1 -15.1459 9.2498 0.482059 1 1.18343e-05 
6876 1 -12.9866 8.06048 0.845571 1 3.74284e-05 
6877 1 -12.2648 9.84338 2.42502 1 0.000113598 
6880 1 -10.8283 9.25094 0.483248 1 0.00014547 
7709 1 -7.93817 9.84491 2.42717 1 0.00182006 
7726 1 -8.66085 8.06696 0.847528 1 0.000605465 
7727 1 -6.4921 9.2633 0.489455 1 0.00593691 
8556 1 -4.28614 8.11719 0.861082 1 0.0745861 
8557 1 -3.63606 9.94083 2.40557 5 0.628356 
8560 1 -1.92509 9.32535 0.495705 5 4.78566 
9385 3 0.6727 10.0412 1.1174 5 1.9648 
15332 2 2.99257 8.95377 0.709547 1 0.113927 
16117 2 5.20117 10.1385 1.07791 1 0.00681922 
16120 2 7.36546 8.95562 0.719677 1 0.000533369 
16960 2 9.53061 10.1469 1.08491 1 0.000238144 
16962 2 11.6868 8.95952 0.72213 1 5.69678e-05 
17792 2 13.8445 10.1507 1.08748 1 1.43798e-05 
17795 2 16.0006 8.96187 0.722667 1 4.44786e-06 
18640 2 18.1567 10.152 1.08741 1 2.23873e-06 
18642 2 20.3121 8.96237 0.722516 1 8.07143e-07 
19472 2 22.4678 10.1524 1.08692 1 4.44353e-07 
19475 2 24.6231 8.96259 0.722188 1 1.71191e-07 
3 4 -64.0083 12.2269 1.69842 5 30.976 
65 4 -61.8528 11.0369 2.06278 1 9.99981e-16 
66 4 -60.4157 10.4419 0.119554 1 1.00253e-15 
67 4 -59.6972 12.2269 1.69842 1 5.00602e-16 
227 4 -57.5416 11.0369 2.06278 1 6.99981e-16 
232 4 -55.3861 12.2269 1.69842 1 6.37165e-09 
254 4 -56.1046 10.4419 0.119554 1 2.31285e-09 
527 1 -53.2306 11.0368 2.06278 1 1.88951e-09 
528 1 -51.7935 10.4418 0.119556 1 2.17005e-09 
529 1 -51.075 12.2268 1.69842 1 1.0918e-09 
903 1 -48.9194 11.0367 2.06275 1 1.49168e-09 
908 1 -46.7639 12.2266 1.69837 1 1.22772e-09 
930 1 -47.4824 10.4417 0.119506 1 1.73814e-09 
1411 1 -44.6084 11.0366 2.06269 1 4.51009e-09 
1412 1 -43.1713 10.4415 0.119451 1 2.149e-09 
1413 1 -42.4528 12.2265 1.69831 1 3.48203e-09 
1997 1 -40.2972 11.0364 2.06263 1 4.73159e-09 
2024 1 -38.8602 10.4414 0.119373 1 5.91402e-09 
2002 1 -38.1417 12.2263 1.69822 1 7.49349e-09 
2717 1 -35.9861 11.0363 2.06251 1 8.20339e-09 
2718 1 -34.5491 10.4412 0.119229 1 1.575e-08 
2719 1 -33.8306 12.2261 1.69807 1 1.52935e-08 
3497 1 -31.6749 11.0361 2.06228 1 2.10891e-08 
3502 1 -29.5194 12.2259 1.69782 1 4.82527e-08 
3524 1 -30.238 10.441 0.118976 1 4.72944e-08 
4346 1 -27.3636 11.0358 2.06197 1 1.18822e-07 
4347 1 -25.9268 10.4407 0.118636 1 1.88014e-07 
4348 1 -25.208 12.2256 1.69757 1 2.30996e-07 
5172 1 -23.0519 11.0355 2.06164 1 6.39672e-07 
5177 1 -20.8962 12.2253 1.6975 1 1.36185e-06 
5199 1 -21.6154 10.4403 0.118393 1 7.53604e-07 
6026 1 -18.7395 11.0351 2.06145 1 4.0606e-06 
6027 1 -17.3033 10.4399 0.118331 1 3.4486e-06 
6028 1 -16.5836 12.2249 1.69778 1 9.51129e-06 
6852 1 -14.4255 11.0341 2.06157 1 3.03689e-05 
6879 1 -12.9897 10.4396 0.118977 1 3.76244e-05 
6857 1 -12.27 12.2239 1.69874 1 6.44429e-05 
7706 1 -10.108 11.0332 2.06303 1 0.000261926 
7707 1 -8.66976 10.4434 0.123401 1 0.000849354 
7708 1 -7.95791 12.2306 1.70059 1 0.00112839 
8532 1 -5.79724 11.058 2.06331 1 0.0207834 
8537 1 -3.64459 12.3086 1.7501 1 0.309049 
8559 1 -4.32977 10.4642 0.130564 1 0.14965 
9384 1 -1.3854 11.3006 1.84946 5 3.25765 
15329 2 0.85528 12.4515 1.74703 5 1.36135 
15333 2 3.03257 11.3108 1.43158 1 0.0788896 
16136 2 5.23287 12.5169 1.79331 1 0.0173508 
16138 2 7.37706 11.3325 1.44478 1 0.00211228 
16958 2 9.53277 12.5291 1.81435 1 0.000261965 
16963 2 11.6883 11.3396 1.45164 1 4.79685e-05 
17811 2 13.8447 12.531 1.8171 1 3.19299e-05 
17813 2 16.0009 11.3415 1.45235 1 7.91406e-06 
18638 2 18.1567 12.5319 1.81666 1 3.98778e-06 
18643 2 20.3124 11.3422 1.45176 1 1.16536e-06 
19491 2 22.4678 12.5324 1.81584 1 4.90367e-07 
19493 2 24.6233 11.3425 1.45112 1 2.21042e-07 
2 4 -64.0083 14.6068 0.969715 5 30.976 
50 4 -61.8528 13.4168 1.33407 1 9.99362e-16 
55 4 -59.6972 14.6068 0.969715 1 9.01082e-16 
230 4 -57.5416 13.4168 1.33407 1 6.99362e-16 
231 4 -55.3861 14.6068 0.969715 1 5.89753e-09 
499 1 -53.2305 13.4168 1.33407 1 1.01417e-09 
504 1 -51.075 14.6067 0.969709 1 1.75669e-09 
906 1 -48.9194 13.4167 1.33404 1 1.12946e-09 
907 1 -46.7639 14.6066 0.969645 1 1.39291e-09 
1383 1 -44.6083 13.4165 1.33397 1 2.56924e-09 
1388 1 -42.4528 14.6064 0.969583 1 2.4432e-09 
2000 1 -40.2972 13.4164 1.33391 1 3.22491e-09 
2001 1 -38.1417 14.6063 0.969514 1 5.66981e-09 
2689 1 -35.9862 13.4162 1.33381 1 1.05691e-08 
2694 1 -33.8306 14.6061 0.96939 1 1.80076e-08 
3500 1 -31.675 13.416 1.33363 1 2.61551e-08 
3501 1 -29.5196 14.6058 0.969227 1 5.17611e-08 
4318 1 -27.3638 13.4157 1.33343 1 9.13836e-08 
4323 1 -25.2084 14.6056 0.969144 1 1.90002e-07 
5175 1 -23.0525 13.4155 1.33336 1 4.44063e-07 
5176 1 -20.897 14.6054 0.96938 1 1.02875e-06 
5998 1 -18.7406 13.4153 1.33369 1 3.25434e-06 
6003 1 -16.5853 14.6056 0.97018 1 7.81606e-06 
6855 1 -14.4281 13.4151 1.33452 1 2.0291e-05 
6856 1 -12.2737 14.6065 0.97095 1 4.37578e-05 
7678 1 -10.1172 13.4161 1.33537 1 0.000152278 
7683 1 -7.96404 14.612 0.970055 1 0.00129727 
8535 1 -5.80281 13.4398 1.33885 1 0.0129517 
8536 1 -3.61187 14.6625 0.939184 1 0.265541 
9358 1 -1.46062 13.6896 1.48317 5 3.24949 
15330 2 1.64055 14.3241 0.227371 5 0.729597 
15349 2 1.02598 14.7495 2.4992 5 3.75173 
15351 2 3.12686 13.6863 2.13406 1 0.163858 
16132 2 3.76426 15.5166 0.588324 1 0.0791861 
16133 2 5.23801 14.9168 2.52992 1 0.00607209 
16134 2 5.92827 14.319 0.225015 1 0.00687439 
16139 2 7.38006 13.7224 2.17172 1 0.00110702 
16957 2 8.09215 15.5088 0.599901 1 0.000943636 
16959 2 10.2518 14.3172 0.239169 1 0.000180376 
16984 2 9.53284 14.9149 2.54345 1 0.000560165 
16986 2 11.6885 13.7213 2.18122 1 0.000143716 
17807 2 12.4077 15.5079 0.604066 1 4.10948e-05 
17808 2 13.8442 14.9121 2.54618 1 6.86175e-05 
17809 2 14.5645 14.3174 0.239374 1 1.29288e-05 
17814 2 16.0006 13.7217 2.18152 1 1.63365e-05 
18637 2 16.7197 15.5075 0.602772 1 4.10753e-06 
18664 2 18.1563 14.9121 2.54532 1 5.83653e-06 
18639 2 18.8757 14.3175 0.237926 1 2.08292e-06 
18666 2 20.3122 13.7222 2.1806 1 1.53233e-06 
19487 2 21.0308 15.5076 0.601527 1 7.21035e-07 
19488 2 22.4676 14.9125 2.54445 1 4.86352e-07 
19489 2 23.1864 14.3176 0.236854 1 5.09022e-07 
19494 2 24.6233 13.7226 2.17984 1 1.70262e-07 
20317 2 25.3417 15.5077 0.600776 1 1.71909e-07 
1 4 -64.0083 16.9868 0.241006 5 30.976 
37 4 -63.2898 16.3918 2.54858 5 18.5856 
53 4 -61.8528 15.7968 0.60536 1 1e-15 
43 4 -61.1342 17.5818 2.18423 1 1.09998e-15 
54 4 -59.6972 16.9868 0.241006 1 1.10342e-15 
203 4 -58.9787 16.3918 2.54858 1 6.0002e-16 
204 4 -57.5416 15.7968 0.60536 1 7.00003e-16 
205 4 -56.8231 17.5818 2.18423 1 8.99981e-16 
208 4 -55.3861 16.9868 0.241006 1 5.7396e-09 
463 4 -54.6676 16.3918 2.54858 1 1.40155e-08 
469 1 -52.512 17.5817 2.18422 1 1.6009e-09 
502 1 -53.2305 15.7968 0.605361 1 1.27671e-09 
503 1 -51.075 16.9867 0.240986 1 9.68926e-10 
872 1 -50.3565 16.3917 2.54857 1 2.51086e-09 
873 1 -48.9194 15.7966 0.605326 1 2.75936e-09 
874 1 -48.2009 17.5816 2.18417 1 1.94727e-09 
877 1 -46.7639 16.9865 0.240912 1 5.19642e-10 
1346 1 -46.0454 16.3915 2.54849 1 2.8122e-09 
1352 1 -43.8898 17.5814 2.18408 1 4.75881e-09 
1386 1 -44.6083 15.7965 0.605236 1 1.91533e-09 
1387 1 -42.4528 16.9864 0.240845 1 1.86113e-09 
1966 1 -41.7343 16.3914 2.54843 1 3.42596e-09 
1967 1 -40.2973 15.7963 0.605196 1 4.10973e-09 
1968 1 -39.5787 17.5813 2.18405 1 5.26235e-09 
1971 1 -38.1417 16.9862 0.240807 1 5.16373e-09 
2652 1 -37.4232 16.3912 2.54837 1 6.82383e-09 
2692 1 -35.9862 15.7962 0.605109 1 8.54789e-09 
2658 1 -35.2677 17.5811 2.18398 1 9.85781e-09 
2693 1 -33.8307 16.986 0.240709 1 1.77005e-08 
3466 1 -33.1121 16.391 2.54825 1 1.14741e-08 
3467 1 -31.6752 15.7959 0.604986 1 2.96404e-08 
3468 1 -30.9566 17.5809 2.18387 1 2.50241e-08 
3471 1 -29.5198 16.9858 0.240616 1 7.01008e-08 
4281 1 -28.801 16.3908 2.54813 1 5.2151e-08 
4287 1 -26.6455 17.5807 2.1838 1 1.26001e-07 
4321 1 -27.3642 15.7957 0.604885 1 1.13201e-07 
4322 1 -25.2089 16.9856 0.240626 1 2.83452e-07 
5141 1 -24.4897 16.3907 2.54811 1 3.63807e-07 
5142 1 -23.0531 15.7955 0.605013 1 4.54154e-07 
5143 1 -22.3343 17.5807 2.18392 1 8.72223e-07 
5146 1 -20.8979 16.9855 0.241002 1 1.13952e-06 
5961 1 -20.1782 16.3908 2.54837 1 2.68677e-06 
5967 1 -18.0227 17.5813 2.18436 1 6.55213e-06 
6001 1 -18.7418 15.7956 0.605623 1 2.59454e-06 
6002 1 -16.5868 16.9863 0.241898 1 7.03502e-06 
6821 1 -15.8666 16.3914 2.54905 1 1.73431e-05 
6822 1 -14.4303 15.7966 0.606626 1 2.00772e-05 
6823 1 -13.7112 17.5829 2.18475 1 3.80872e-05 
6826 1 -12.2753 16.9889 0.24222 1 7.65099e-05 
7641 1 -11.5559 16.3918 2.54896 1 0.000116142 
7681 1 -10.1189 15.7998 0.605546 1 0.000261147 
7647 1 -9.40333 17.5849 2.18062 1 0.000325141 
7682 1 -7.96102 16.9946 0.233894 1 0.00162981 
8501 1 -7.25491 16.3918 2.54114 1 0.00240812 
8502 1 -5.80296 15.8102 0.593359 1 0.0112874 
8503 1 -5.1339 17.6129 2.15344 1 0.0703505 
8506 1 -3.6381 17.0037 0.20188 1 0.229322 
9321 1 -3.04557 16.485 2.46923 5 1.13964 
9327 1 -0.678087 17.8449 1.8845 5 5.562 
9361 1 -1.11926 15.857 0.460192 5 5.97825 
15347 2 1.41264 16.6548 0.926734 5 1.73141 
16131 2 3.74821 17.8652 1.32451 1 0.0604471 
16135 2 5.93672 16.6996 0.966528 1 0.00583587 
16980 2 8.09553 17.8917 1.33451 1 0.000829372 
16982 2 10.2503 16.6995 0.967898 1 0.000124162 
17806 2 12.4062 17.8893 1.33171 1 2.22676e-05 
17810 2 14.5632 16.698 0.967401 1 1.11887e-05 
18660 2 16.7185 17.8879 1.33049 1 3.79211e-06 
18662 2 18.8749 16.6976 0.966108 1 1.27594e-06 
19486 2 21.0301 17.8876 1.32969 1 4.54926e-07 
19490 2 23.186 16.6976 0.96528 1 2.37809e-07 
20340 2 25.3413 17.8877 1.32923 1 1.01045e-07 
40 4 -63.2898 18.7717 1.81988 5 18.5856 
42 4 -61.1342 19.9617 1.45552 1 9.00004e-16 
180 4 -58.9787 18.7717 1.81988 1 7.01202e-16 
185 4 -56.8231 19.9617 1.45552 1 7.00003e-16 
466 4 -54.6676 18.7717 1.81988 1 1.53606e-08 
468 1 -52.512 19.9617 1.4555 1 1.75051e-09 
832 1 -50.3565 18.7716 1.81983 1 2.11256e-09 
837 1 -48.2009 19.9615 1.45543 1 2.37649e-09 
1349 1 -46.0454 18.7715 1.81975 1 2.1673e-09 
1351 1 -43.8898 19.9614 1.45535 1 3.63734e-09 
1926 1 -41.7343 18.7713 1.8197 1 3.88193e-09 
1931 1 -39.5788 19.9613 1.45536 1 5.57203e-09 
2655 1 -37.4232 18.7712 1.81969 1 8.52045e-09 
2657 1 -35.2677 19.9611 1.45529 1 1.08147e-08 
3426 1 -33.1122 18.771 1.81959 1 1.95919e-08 
3431 1 -30.9568 19.9609 1.4552 1 3.95288e-08 
4284 1 -28.8012 18.7708 1.8195 1 6.61786e-08 
4286 1 -26.6458 19.9607 1.45512 1 1.63825e-07 
5101 1 -24.4901 18.7707 1.81949 1 3.06371e-07 
5106 1 -22.3347 19.9608 1.45514 1 7.02331e-07 
5964 1 -20.1788 18.771 1.8197 1 2.04462e-06 
5966 1 -18.0232 19.9616 1.45531 1 4.73594e-06 
6781 1 -15.867 18.7725 1.82006 1 1.5551e-05 
6786 1 -13.7108 19.9645 1.45498 1 3.69987e-05 
7644 1 -11.556 18.7757 1.8189 1 7.9186e-05 
7646 1 -9.40177 19.9717 1.45081 1 0.00077751 
8461 1 -7.25712 18.7861 1.80573 1 0.00679282 
8466 1 -5.08683 19.9839 1.43464 1 0.0131174 
9324 1 -2.94652 18.8351 1.80863 1 0.346516 
9326 1 -0.724993 20.2246 1.58674 5 2.94466 
15348 2 1.58071 18.9695 1.7242 5 1.14314 
16161 2 3.78905 20.2244 2.07719 1 0.156143 
16163 2 5.93249 19.0752 1.69654 1 0.00670537 
16978 2 8.08695 20.2732 2.06067 1 0.000498091 
16983 2 10.2494 19.0819 1.69682 1 0.000116613 
17836 2 12.4043 20.2704 2.05866 1 3.51791e-05 
17838 2 14.5617 19.0787 1.6946 1 9.16846e-06 
18658 2 16.7175 20.268 2.05789 1 4.42336e-06 
18663 2 18.8739 19.0777 1.69392 1 1.52466e-06 
19516 2 21.0295 20.2676 2.05777 1 8.3516e-07 
19518 2 23.1855 19.0776 1.69357 1 2.53355e-07 
20338 2 25.341 20.2676 2.05769 1 1.47123e-07 
29 4 -63.2898 21.1517 1.09117 5 18.5856 
34 4 -61.1342 22.3417 0.726812 1 9.00044e-16 
183 4 -58.9787 21.1517 1.09117 1 5.01843e-16 
184 4 -56.8231 22.3417 0.726812 1 7.00043e-16 
431 4 -54.6676 21.1517 1.09117 1 1.51333e-08 
436 1 -52.512 22.3416 0.726782 1 2.53407e-09 
835 1 -50.3565 21.1516 1.0911 1 3.58509e-09 
836 1 -48.2009 22.3415 0.726711 1 2.11169e-09 
1303 1 -46.0454 21.1514 1.09102 1 3.82927e-09 
1308 1 -43.8898 22.3413 0.72665 1 1.93515e-09 
1929 1 -41.7343 21.1513 1.091 1 1.14408e-09 
1930 1 -39.5788 22.3412 0.726653 1 3.53624e-09 
2609 1 -37.4232 21.1512 1.09099 1 7.10631e-09 
2614 1 -35.2677 22.3411 0.726602 1 1.65277e-08 
3429 1 -33.1123 21.151 1.0909 1 2.26992e-08 
3430 1 -30.9568 22.3409 0.726486 1 4.55984e-08 
4238 1 -28.8013 21.1508 1.09079 1 8.78001e-08 
4243 1 -26.6458 22.3407 0.726314 1 1.832e-07 
5104 1 -24.4903 21.1507 1.09068 1 3.44423e-07 
5105 1 -22.3348 22.3407 0.72613 1 7.00089e-07 
5918 1 -20.1791 21.151 1.09064 1 1.55394e-06 
5923 1 -18.0232 22.3414 0.725852 1 3.43325e-06 
6784 1 -15.867 21.1527 1.09047 1 1.06802e-05 
6785 1 -13.7099 22.3446 0.725095 1 3.65153e-05 
7598 1 -11.5534 21.1584 1.08884 1 0.000175603 
7603 1 -9.3909 22.3532 0.722612 1 0.000468017 
8464 1 -7.2392 21.1667 1.08383 1 0.00125453 
8465 1 -5.06971 22.3571 0.71127 1 0.0104408 
9278 1 -2.88588 21.1783 1.03283 1 0.376185 
9283 3 -0.264953 22.3264 0.523781 5 7.35011 
15373 2 1.65638 21.3312 2.30567 5 3.87301 
16130 2 2.37027 20.8424 0.123487 5 0.530385 
16157 2 2.1398 23.2377 0.835202 5 1.70351 
16159 2 4.46799 22.0556 0.508296 1 0.0626079 
16164 2 5.9252 21.4558 2.43311 1 0.00773865 
16976 2 6.63668 23.2422 0.853827 1 0.00436111 
16977 2 6.64249 20.8676 0.122579 1 0.00371993 
16979 2 8.80362 22.0565 0.481341 1 0.00042458 
17016 2 10.243 21.4622 2.42218 1 0.000154816 
17805 2 10.9678 20.8666 0.11684 1 0.000106537 
17832 2 10.9634 23.2449 0.842151 1 5.64011e-05 
17834 2 13.1233 22.055 0.478569 1 1.97027e-05 
17839 2 14.5605 21.4588 2.42157 1 1.42024e-05 
18656 2 15.2793 23.2437 0.842244 1 7.80193e-06 
18657 2 15.2805 20.864 0.114694 1 3.51186e-06 
18659 2 17.436 22.0533 0.478432 1 2.57865e-06 
18696 2 18.8733 21.4577 2.42178 1 2.41472e-06 
19485 2 19.5923 20.863 0.114483 1 1.25031e-06 
19512 2 19.592 23.2427 0.842725 1 1.18786e-06 
19514 2 21.748 22.0527 0.478629 1 6.03664e-07 
19519 2 23.1852 21.4576 2.42193 1 4.21711e-07 
20336 2 23.9037 23.2425 0.842999 1 2.32251e-07 
20337 2 23.9038 20.8627 0.114427 1 3.06222e-07 
26 4 -62.5713 25.3166 1.94133 5 12.3904 
32 4 -63.2898 23.5316 0.362457 5 18.5856 
161 4 -60.4157 24.1266 2.30568 1 8.99981e-16 
162 4 -58.9787 23.5316 0.362457 1 9.03405e-16 
163 4 -58.2602 25.3166 1.94133 1 7.01202e-16 
399 4 -56.1046 24.1266 2.30568 1 3.18493e-09 
404 1 -53.9491 25.3166 1.94132 1 1.78641e-09 
434 4 -54.6676 23.5316 0.362457 1 1.38534e-08 
789 1 -51.7935 24.1266 2.30565 1 1.8457e-09 
790 1 -50.3565 23.5315 0.362399 1 2.63581e-09 
791 1 -49.638 25.3165 1.94127 1 1.3493e-09 
1251 1 -47.4824 24.1264 2.30558 1 1.58512e-09 
1306 1 -46.0454 23.5314 0.362321 1 2.24342e-09 
1256 1 -45.3269 25.3163 1.9412 1 3.40321e-09 
1879 1 -43.1713 24.1263 2.30553 1 2.93146e-09 
1880 1 -41.7343 23.5312 0.362304 1 2.69176e-09 
1881 1 -41.0158 25.3162 1.94118 1 4.50822e-09 
2556 1 -38.8602 24.1262 2.30552 1 4.203e-09 
2561 1 -36.7047 25.3161 1.94114 1 1.11093e-08 
2612 1 -37.4232 23.5311 0.362286 1 1.00755e-08 
3379 1 -34.5492 24.1261 2.30544 1 1.39187e-08 
3380 1 -33.1123 23.531 0.362186 1 2.78762e-08 
3381 1 -32.3936 25.3159 1.94099 1 2.55688e-08 
4185 1 -30.2381 24.1259 2.30527 1 4.94772e-08 
4190 1 -28.0825 25.3157 1.94071 1 6.48745e-08 
4241 1 -28.8013 23.5308 0.362007 1 9.04463e-08 
5054 1 -25.9269 24.1257 2.30494 1 1.53247e-07 
5055 1 -24.4903 23.5306 0.361741 1 3.45757e-07 
5056 1 -23.7711 25.3156 1.94024 1 3.09954e-07 
5865 1 -21.6152 24.1258 2.30444 1 1.01375e-06 
5870 1 -19.4588 25.3157 1.93949 1 2.46164e-06 
5921 1 -20.1791 23.5307 0.361392 1 1.54033e-06 
6734 1 -17.3022 24.1265 2.30351 1 9.03064e-06 
6735 1 -15.8668 23.532 0.360711 1 9.92856e-06 
6736 1 -15.144 25.3166 1.93814 1 2.24046e-05 
7545 1 -12.9849 24.1289 2.30201 1 9.09174e-05 
7550 1 -10.8225 25.3209 1.93661 1 0.000185061 
7601 1 -11.5501 23.5371 0.359731 1 9.20418e-05 
8414 1 -8.66088 24.1351 2.29914 1 0.000826802 
8415 1 -7.22201 23.5494 0.354939 1 0.00216854 
8416 1 -6.49659 25.3405 1.9315 1 0.00678896 
9225 1 -4.37182 24.1524 2.27942 1 0.0474933 
9281 1 -2.89378 23.5211 0.309319 1 0.332486 
9230 1 -2.21952 25.3643 1.89429 1 0.272639 
15371 3 -0.0376336 24.2675 1.99978 5 6.57128 
16156 2 2.24912 25.5383 1.63971 5 1.14536 
16160 2 4.43722 24.4047 1.22613 1 0.0577107 
17010 2 6.63453 25.6081 1.57204 1 0.00536657 
17012 2 8.80244 24.432 1.20797 1 0.000417352 
17831 2 10.9615 25.6227 1.57063 1 6.93068e-05 
17835 2 13.1212 24.4338 1.20597 1 2.1454e-05 
18690 2 15.279 25.6226 1.57071 1 9.14444e-06 
18692 2 17.4358 24.4328 1.20674 1 2.88825e-06 
19511 2 19.5923 25.6223 1.57152 1 9.15848e-07 
19515 2 21.748 24.4324 1.20726 1 4.08721e-07 
20370 2 23.904 25.6223 1.57184 1 1.17141e-07 
25 4 -62.5713 27.6966 1.21262 5 12.3904 
142 4 -60.4157 26.5066 1.57697 1 8.00003e-16 
147 4 -58.2602 27.6966 1.21262 1 1.20246e-15 
402 4 -56.1046 26.5066 1.57697 1 2.77293e-09 
403 1 -53.9491 27.6965 1.21261 1 1.74394e-09 
746 1 -51.7935 26.5065 1.57694 1 9.27056e-10 
751 1 -49.638 27.6964 1.21257 1 1.40613e-09 
1254 1 -47.4824 26.5064 1.57689 1 1.46227e-09 
1255 1 -45.3269 27.6963 1.21251 1 1.86062e-09 
1821 1 -43.1713 26.5062 1.57684 1 1.21179e-09 
1826 1 -41.0158 27.6961 1.21248 1 5.56264e-09 
2559 1 -38.8602 26.5061 1.57682 1 6.6816e-09 
2560 1 -36.7047 27.696 1.21242 1 1.32591e-08 
3321 1 -34.5491 26.506 1.5767 1 1.40653e-08 
3326 1 -32.3936 27.6959 1.21222 1 1.51306e-08 
4188 1 -30.238 26.5058 1.57648 1 3.48073e-08 
4189 1 -28.0824 27.6956 1.21189 1 5.21431e-08 
4996 1 -25.9268 26.5056 1.57606 1 1.16688e-07 
5001 1 -23.771 27.6954 1.21139 1 2.92692e-07 
5868 1 -21.615 26.5054 1.57547 1 7.46956e-07 
5869 1 -19.4588 27.6952 1.21069 1 1.99826e-06 
6676 1 -17.3019 26.5055 1.57445 1 6.37071e-06 
6681 1 -15.1444 27.6952 1.20963 1 1.51483e-05 
7548 1 -12.9846 26.5069 1.57296 1 4.61735e-05 
7549 1 -10.8241 27.6982 1.20886 1 0.000114139 
8356 1 -8.65851 26.5173 1.57287 1 0.000685493 
8361 1 -6.48618 27.7225 1.21576 1 0.00439652 
9228 1 -4.31428 26.5707 1.57998 1 0.052743 
9229 1 -2.06357 27.8638 1.25975 5 3.78706 
10015 3 0.00684185 26.6223 1.5675 5 3.63892 
16155 2 0.784651 28.5762 0.312012 5 3.75213 
16195 2 2.38326 27.9222 2.24538 5 1.02173 
16197 2 4.48876 26.777 1.92747 1 0.0549356 
17007 2 5.19276 28.5937 0.360085 1 0.00963545 
17008 2 6.63477 27.9978 2.29801 1 0.00216424 
17013 2 8.79698 26.8085 1.93536 1 0.000607863 
17830 2 9.52532 28.5931 0.357709 1 0.000155053 
17872 2 10.9613 27.9994 2.29906 1 0.000241868 
17874 2 13.1213 26.8117 1.93495 1 3.40779e-05 
18687 2 13.8439 28.5964 0.357624 1 1.51491e-05 
18688 2 15.28 28.0012 2.30011 1 1.36742e-05 
18693 2 17.4363 26.812 1.93577 1 3.30458e-06 
19510 2 18.1562 28.597 0.357804 1 1.55169e-06 
19552 2 19.5929 28.0018 2.30074 1 1.20742e-06 
19554 2 21.7484 26.8122 1.93627 1 2.99093e-07 
20367 2 22.4674 28.5972 0.357775 1 3.17405e-07 
20368 2 23.9043 28.0022 2.30086 1 1.37946e-07 
20 4 -64.0083 30.6715 2.42713 5 30.976 
22 4 -62.5713 30.0765 0.483909 5 12.3904 
131 4 -59.6972 30.6715 2.42713 1 1.10002e-15 
145 4 -60.4157 28.8865 0.848263 1 6.00563e-16 
146 4 -58.2602 30.0765 0.483909 1 3.98883e-16 
372 4 -56.1046 28.8865 0.848263 1 2.56739e-09 
373 4 -55.3861 30.6715 2.42713 1 7.87535e-09 
376 1 -53.9491 30.0765 0.483913 1 2.36227e-09 
749 1 -51.7935 28.8865 0.848246 1 7.18181e-10 
711 1 -51.075 30.6714 2.42712 1 1.22379e-09 
750 1 -49.638 30.0764 0.483884 1 1.41481e-09 
1200 1 -47.4824 28.8863 0.8482 1 1.06376e-09 
1201 1 -46.7639 30.6713 2.42708 1 1.39326e-09 
1204 1 -45.3269 30.0762 0.483821 1 2.45149e-09 
1763 1 -42.4528 30.6711 2.42702 1 5.30733e-09 
1824 1 -43.1713 28.8862 0.848155 1 2.45763e-09 
1825 1 -41.0158 30.0761 0.483774 1 4.09e-09 
2497 1 -38.8602 28.886 0.848099 1 5.04254e-09 
2498 1 -38.1417 30.671 2.42694 1 6.09085e-09 
2501 1 -36.7047 30.076 0.483684 1 9.89455e-09 
3261 1 -33.8305 30.6708 2.42676 1 1.12921e-08 
3324 1 -34.5491 28.8859 0.847955 1 1.27633e-08 
3325 1 -32.3936 30.0758 0.483462 1 2.005e-08 
4126 1 -30.238 28.8857 0.847701 1 3.63369e-08 
4127 1 -29.5192 30.6706 2.42648 1 5.58414e-08 
4130 1 -28.0824 30.0755 0.483144 1 7.49645e-08 
4999 1 -25.9267 28.8854 0.847271 1 1.41682e-07 
4936 1 -25.2077 30.6703 2.42604 1 2.93938e-07 
5000 1 -23.771 30.0752 0.482739 1 3.37746e-07 
5806 1 -21.6151 28.8851 0.846783 1 7.37691e-07 
5807 1 -20.8956 30.67 2.42559 1 1.80527e-06 
5810 1 -19.4591 30.0748 0.482364 1 1.68656e-06 
6616 1 -16.5821 30.6693 2.42508 1 1.23083e-05 
6679 1 -17.3023 28.8848 0.846111 1 4.90092e-06 
6680 1 -15.1459 30.0744 0.482059 1 1.18343e-05 
7486 1 -12.9866 28.8851 0.845571 1 3.74284e-05 
7487 1 -12.2648 30.668 2.42502 1 0.000113598 
7490 1 -10.8283 30.0755 0.483248 1 0.00014547 
8296 1 -7.93817 30.6695 2.42717 1 0.00182006 
8359 1 -8.66085 28.8916 0.847528 1 0.000605465 
8360 1 -6.4921 30.0879 0.489455 1 0.00593691 
9166 1 -4.28614 28.9418 0.861082 1 0.0745861 
9167 1 -3.63606 30.7654 2.40557 5 0.628356 
9170 1 -1.92509 30.15 0.495705 5 4.78566 
9955 3 0.6727 30.8658 1.1174 5 1.9648 
16193 2 2.99257 29.7784 0.709547 1 0.113927 
17006 2 5.20117 30.9631 1.07791 1 0.00681922 
17009 2 7.36546 29.7802 0.719677 1 0.000533369 
17868 2 9.53061 30.9715 1.08491 1 0.000238144 
17870 2 11.6868 29.7841 0.72213 1 5.69678e-05 
18686 2 13.8445 30.9753 1.08748 1 1.43798e-05 
18689 2 16.0006 29.7865 0.722667 1 4.44786e-06 
19548 2 18.1567 30.9766 1.08741 1 2.23873e-06 