ITEM: TIMESTEP
0
ITEM: NUMBER OF ATOMS
17280
ITEM: BOX BOUNDS ss pp pp
-70.8873 118.04
0 31.4838
0 31.68
ITEM: ATOMS id type x y z c_cna c_csd 
16 4 -69.8378 1.57886 0.509374 5 12.3904 
91 4 -69.0507 0.00466363 2.26937 5 6.1952 
92 4 -67.4765 0.79176 0.509374 1 6.01087e-16 
96 4 -65.6399 2.36595 1.09604 1 1.19984e-15 
100 4 -65.1152 0.00466363 0.509374 1 1.20543e-15 
251 4 -63.2787 1.57886 1.09604 1 4.53313e-10 
253 1 -60.9174 0.791744 1.09604 1 6.79703e-09 
467 1 -59.0808 2.3659 1.68268 1 4.04643e-09 
480 1 -58.556 0.00459903 1.096 1 2.39229e-09 
481 1 -56.7195 1.57875 1.6826 1 1.63743e-09 
769 1 -54.3582 0.791612 1.6825 1 1.46666e-08 
774 1 -52.5216 2.3658 2.26915 1 5.74657e-09 
781 1 -51.9969 0.00452362 1.68247 1 3.39586e-09 
1145 1 -50.1603 1.57875 2.26912 1 4.30217e-09 
1146 1 -48.5861 2.36587 0.509081 1 5.86799e-09 
1148 1 -47.799 0.791704 2.26905 1 3.46221e-09 
1156 1 -46.2248 1.57883 0.508977 1 1.34788e-09 
1575 1 -45.4378 0.00466299 2.26894 1 2.30759e-09 
1576 1 -43.8636 0.79181 0.508868 1 7.65999e-09 
1580 1 -42.027 2.36607 1.09541 1 9.71341e-09 
1584 1 -41.5023 0.00480892 0.5087 1 1.04479e-08 
2011 1 -39.6657 1.57908 1.09518 1 9.69821e-10 
2013 1 -37.3044 0.792105 1.09494 1 5.95696e-09 
2431 1 -35.4679 2.36642 1.68145 1 3.09795e-09 
2444 1 -34.9431 0.00517489 1.09474 1 3.25911e-09 
2445 1 -33.1066 1.57951 1.68121 1 2.7693e-09 
2865 1 -30.7453 0.792567 1.68094 1 1.09222e-08 
2870 1 -28.9087 2.36683 2.26737 1 3.87226e-09 
2877 1 -28.384 0.0055579 1.68065 1 3.03201e-09 
3301 1 -26.5475 1.5798 2.2671 1 1.30127e-09 
3302 1 -24.9733 2.36694 0.506927 1 3.01052e-09 
3304 1 -24.1862 0.792779 2.26684 1 4.26453e-09 
3312 1 -22.612 1.57996 0.506657 1 3.43205e-09 
3735 1 -21.8249 0.00580026 2.26656 1 4.20511e-09 
3736 1 -20.2507 0.792999 0.506365 1 1.16588e-08 
3740 1 -18.4142 2.36727 1.09283 1 8.21607e-08 
3744 1 -17.8895 0.00603915 0.506099 1 7.38885e-08 
4171 1 -16.0529 1.58025 1.09263 1 6.05393e-07 
4173 1 -13.6914 0.793221 1.09242 1 5.0795e-06 
4591 1 -11.8561 2.36771 1.67926 1 2.99308e-05 
4604 1 -11.3297 0.00615411 1.09205 1 4.59583e-05 
4605 1 -9.49654 1.58124 1.67946 1 0.000254352 
5025 1 -7.14236 0.793443 1.67879 1 0.0025729 
5030 1 -5.30093 2.36439 2.26213 1 0.0116114 
5037 1 -4.80158 0.00250302 1.67916 1 0.0299432 
5450 1 -2.95688 1.53518 2.31901 5 1.91236 
5451 1 -1.60383 2.39938 0.62666 5 6.56376 
6481 2 0.259874 1.51158 1.79716 5 3.91312 
6482 2 1.83594 0.770394 0.0593671 1 0.121207 
6501 2 2.06506 0.00507267 2.43842 1 0.177772 
6502 2 2.58223 2.38038 1.79587 1 0.0531737 
6504 2 4.42135 0.798694 2.39659 1 0.00629614 
6515 2 4.17544 1.58183 0.0494764 1 0.0054309 
6514 2 6.00027 0.00558042 0.637287 1 0.00177024 
6517 2 6.53559 2.36853 0.0483841 1 0.000333947 
6622 2 6.79088 1.58149 2.39665 1 0.000598098 
6620 2 8.36685 0.793926 0.636315 1 0.000234676 
6625 2 9.15554 2.36831 2.39614 1 7.89975e-05 
6653 2 10.7304 1.58131 0.635909 1 2.89493e-05 
6849 2 12.5677 0.00756953 1.22231 1 1.95936e-06 
6850 2 13.0923 2.36864 0.635547 1 3.41887e-06 
6852 2 14.9291 0.794579 1.22196 1 2.22312e-07 
7158 2 17.2904 1.58163 1.22164 1 3.64718e-08 
7157 2 19.1271 0.00742493 1.8081 1 2.03627e-08 
7161 2 19.6518 2.36872 1.2214 1 1.35094e-08 
7497 2 21.4884 0.794543 1.80794 1 2.01935e-09 
7537 2 23.0626 0.00747068 0.0478334 1 3.13257e-10 
13 4 -70.3625 3.94014 1.09604 5 24.7808 
94 4 -68.0012 3.15305 1.09604 1 1.09992e-15 
95 4 -66.1647 4.72724 1.68271 1 4e-16 
237 4 -63.8034 3.94014 1.68271 1 4.00001e-16 
252 4 -61.4421 3.15305 1.68271 1 1.02467e-08 
470 1 -59.6055 4.7272 2.26935 1 3.5728e-09 
473 1 -57.2442 3.94005 2.26929 1 1.84079e-09 
483 1 -55.67 4.72711 0.509223 1 3.10624e-09 
771 1 -54.8829 3.1529 2.2692 1 6.41455e-09 
772 1 -53.3087 3.93999 0.509156 1 9.47175e-09 
783 1 -50.9474 3.15292 0.509128 1 1.80277e-09 
1149 1 -49.1109 4.72715 1.09576 1 6.57695e-09 
1151 1 -46.7496 3.9401 1.09567 1 2.53367e-09 
1578 1 -44.3883 3.15308 1.09556 1 2.95569e-09 
1579 1 -42.5517 4.72735 1.68211 1 1.01183e-08 
1997 1 -40.1904 3.94035 1.6819 1 3.53598e-09 
2012 1 -37.8292 3.15336 1.68165 1 9.20346e-09 
2434 1 -35.9926 4.72767 2.26816 1 2.35752e-09 
2437 1 -33.6313 3.94076 2.26793 1 3.10704e-09 
2447 1 -32.0571 4.72797 0.507762 1 7.73547e-09 
2867 1 -31.27 3.15382 2.26767 1 1.01159e-08 
2868 1 -29.6958 3.941 0.507475 1 6.48654e-09 
2879 1 -27.3346 3.15397 0.507187 1 2.92591e-09 
3305 1 -25.498 4.7282 1.09365 1 5.04275e-09 
3307 1 -23.1367 3.94121 1.09339 1 3.66487e-09 
3738 1 -20.7754 3.15425 1.09311 1 9.25358e-09 
3739 1 -18.9389 4.72857 1.67956 1 8.07777e-08 
4157 1 -16.5778 3.94157 1.67937 1 5.21295e-07 
4172 1 -14.2167 3.15458 1.67925 1 4.01601e-06 
4594 1 -12.3799 4.72897 2.26558 1 5.68084e-06 
4597 1 -10.0187 3.9425 2.26548 1 5.15918e-05 
4607 1 -8.44871 4.73026 0.504558 1 0.00074295 
5027 1 -7.65748 3.15701 2.26635 1 0.000572359 
5028 1 -6.09586 3.94992 0.508261 1 0.0100049 
5039 1 -3.76522 3.20085 0.498201 1 0.294461 
5454 1 -1.62178 4.86129 1.05123 5 4.09334 
6483 2 0.643622 3.93296 1.22908 5 4.3378 
6518 2 3.11795 4.72932 1.21566 1 0.0271005 
6516 2 4.95866 3.155 1.80472 1 0.00248194 
6623 2 7.32146 3.94205 1.80834 1 0.000260097 
6654 2 8.89619 3.15549 0.0490359 1 5.67443e-05 
6655 2 9.68207 4.73002 1.80882 1 3.09083e-05 
6656 2 11.2566 3.9429 0.0489924 1 8.90309e-06 
6853 2 11.5178 3.15577 2.39573 1 1.03741e-05 
6856 2 13.8794 3.94293 2.39538 1 1.38807e-06 
6889 2 15.4538 3.1558 0.635193 1 3.85698e-07 
6890 2 13.6175 4.73008 0.0487157 1 1.21012e-06 
7159 2 17.8152 3.9429 0.6349 1 5.29615e-08 
7162 2 16.2409 4.73 2.39508 1 1.81707e-07 
7196 2 20.1765 4.73 0.634691 1 9.20076e-09 
7540 2 22.0131 3.15584 1.22125 1 2.35965e-09 
12 4 -70.8872 6.30143 1.68271 5 37.1712 
78 4 -68.526 5.51434 1.68271 1 1.2e-15 
84 4 -66.6894 7.08853 2.26937 1 7.002e-16 
240 4 -64.3281 6.30143 2.26937 1 1.5002e-15 
241 4 -62.7539 7.08853 0.509374 1 1.421e-09 
243 4 -61.9668 5.51434 2.26937 1 5.20869e-09 
255 1 -60.3926 6.30141 0.509364 1 4.1786e-09 
471 1 -58.0313 5.51426 0.509311 1 2.21347e-09 
476 1 -56.1947 7.08841 1.09592 1 3.27515e-09 
775 1 -53.8334 6.30127 1.09583 1 1.27717e-08 
777 1 -51.4722 5.5142 1.09581 1 2.10159e-09 
1131 1 -49.6356 7.08843 1.68245 1 6.53039e-09 
1150 1 -47.2743 6.30138 1.68236 1 3.08187e-09 
1562 1 -44.913 5.51435 1.68225 1 1.94243e-09 
1568 1 -43.0765 7.08861 2.26882 1 1.01446e-08 
2000 1 -40.7152 6.30161 2.26863 1 6.22629e-09 
2001 1 -39.141 7.08877 0.508458 1 4.33322e-09 
2003 1 -38.3539 5.51462 2.26838 1 4.25642e-09 
2015 1 -36.7797 6.30181 0.508233 1 4.45396e-09 
2435 1 -34.4184 5.51489 0.508011 1 1.8218e-09 
2440 1 -32.5818 7.08921 1.09449 1 6.31985e-09 
2871 1 -30.2206 6.30226 1.09421 1 9.03561e-09 
2873 1 -27.8593 5.51524 1.09392 1 1.7834e-09 
3287 1 -26.0227 7.08948 1.68037 1 2.4311e-09 
3306 1 -23.6615 6.30247 1.68011 1 6.28809e-09 
3722 1 -21.3002 5.51551 1.67984 1 1.00866e-08 
3728 1 -19.4636 7.08981 2.26628 1 1.66034e-08 
4160 1 -17.1023 6.30286 2.26604 1 8.85085e-08 
4161 1 -15.5282 7.09006 0.505884 1 5.43142e-07 
4163 1 -14.7411 5.5159 2.26582 1 6.41094e-07 
4175 1 -13.1672 6.3032 0.505608 1 5.96954e-06 
4595 1 -10.8069 5.51638 0.505123 1 6.51434e-05 
4600 1 -8.96772 7.08923 1.09103 1 0.000430507 
5031 1 -6.60238 6.2998 1.08821 1 0.00491637 
5033 1 -4.21422 5.52141 1.09403 1 0.104448 
5440 1 -2.46224 7.11845 1.66284 5 4.26339 
5446 1 -0.235446 7.0716 2.34542 5 6.80099 
6484 2 1.22834 6.28585 0.620972 5 0.935423 
6519 2 3.62937 7.07963 0.646389 1 0.0171507 
6521 2 5.48305 5.51649 1.22497 1 0.00124959 
6657 2 7.84424 6.30487 1.22313 1 0.000138636 
6660 2 10.206 7.09169 1.22265 1 1.84776e-05 
6854 2 12.0432 5.51721 1.80879 1 4.60549e-06 
6891 2 14.4045 6.30424 1.8086 1 6.13414e-07 
6892 2 15.9787 5.51713 0.0484276 1 1.80992e-07 
7163 2 16.7658 7.0913 1.80833 1 9.61164e-08 
7197 2 18.34 6.3042 0.0481707 1 4.02438e-08 
7165 2 18.6023 5.51708 2.39482 1 3.54053e-08 
7199 2 20.7013 7.0913 0.047989 1 5.25251e-09 
7544 2 20.9636 6.3042 2.39464 1 2.44554e-09 
7541 2 22.5379 5.51713 0.634533 1 1.08976e-09 
7547 2 23.325 7.09133 2.39448 1 6.46328e-10 
14 4 -69.8378 9.44981 0.509374 5 18.5856 
81 4 -69.0507 7.87562 2.26937 5 6.1952 
82 4 -67.4765 8.66272 0.509374 1 7.00286e-16 
87 4 -65.6399 10.2369 1.09604 1 1.20477e-15 
98 4 -65.1152 7.87562 0.509374 1 8.01884e-16 
244 4 -63.2787 9.44981 1.09604 1 4.57077e-10 
246 1 -60.9174 8.6627 1.09604 1 6.73291e-09 
452 1 -59.0808 10.2369 1.68268 1 4.40953e-09 
474 1 -58.556 7.87556 1.096 1 2.42423e-09 
475 1 -56.7195 9.44971 1.6826 1 1.60518e-09 
755 1 -54.3582 8.66257 1.6825 1 1.47117e-08 
761 1 -52.5216 10.2368 2.26915 1 5.45882e-09 
776 1 -51.9969 7.87548 1.68247 1 3.15846e-09 
1134 1 -50.1603 9.44971 2.26912 1 4.26142e-09 
1135 1 -48.5861 10.2368 0.509081 1 5.7905e-09 
1137 1 -47.799 8.66266 2.26905 1 3.67122e-09 
1153 1 -46.2248 9.44979 0.508977 1 1.35852e-09 
1565 1 -45.4378 7.87562 2.26894 1 2.35542e-09 
1566 1 -43.8636 8.66277 0.508869 1 8.1411e-09 
1571 1 -42.027 10.237 1.09541 1 9.70442e-09 
1582 1 -41.5023 7.87577 0.508699 1 1.01822e-08 
2004 1 -39.6657 9.45004 1.09518 1 8.91596e-10 
2006 1 -37.3044 8.66306 1.09494 1 6.13509e-09 
2416 1 -35.4679 10.2374 1.68145 1 2.9826e-09 
2438 1 -34.9431 7.87613 1.09473 1 3.1649e-09 
2439 1 -33.1066 9.45047 1.68121 1 2.79721e-09 
2851 1 -30.7453 8.66353 1.68094 1 1.08826e-08 
2857 1 -28.9087 10.2378 2.26737 1 3.87942e-09 
2872 1 -28.384 7.87652 1.68065 1 3.24214e-09 
3290 1 -26.5475 9.45076 2.2671 1 1.17758e-09 
3291 1 -24.9733 10.2379 0.506927 1 2.98075e-09 
3293 1 -24.1862 8.66374 2.26684 1 4.37576e-09 
3309 1 -22.612 9.45092 0.506656 1 3.49466e-09 
3725 1 -21.8249 7.87676 2.26656 1 4.27493e-09 
3726 1 -20.2507 8.66396 0.506365 1 1.19944e-08 
3731 1 -18.4142 10.2382 1.09283 1 8.22558e-08 
3742 1 -17.8895 7.877 0.506099 1 7.30996e-08 
4164 1 -16.0529 9.45121 1.09263 1 6.04627e-07 
4166 1 -13.6914 8.66418 1.09242 1 5.07954e-06 
4576 1 -11.8561 10.2387 1.67926 1 2.99313e-05 
4598 1 -11.3297 7.87711 1.09205 1 4.5961e-05 
4599 1 -9.49654 9.4522 1.67946 1 0.000254385 
5011 1 -7.14236 8.6644 1.67879 1 0.00257283 
5017 1 -5.30094 10.2353 2.26214 1 0.0116074 
5032 1 -4.80158 7.87346 1.67916 1 0.0299432 
5443 1 -2.95688 9.40615 2.319 5 1.91227 
5444 1 -1.60387 10.2703 0.626677 5 6.56405 
6485 2 0.259881 9.38254 1.79717 5 3.91317 
6486 2 1.83594 8.64136 0.0593653 1 0.121215 
6522 2 2.06505 7.87603 2.43842 1 0.17777 
6523 2 2.58223 10.2513 1.79587 1 0.0531724 
6525 2 4.42135 8.66965 2.39659 1 0.00629655 
6536 2 4.17545 9.45279 0.0494768 1 0.00542909 
6535 2 6.00026 7.87654 0.637288 1 0.0017704 
6538 2 6.53559 10.2395 0.0483841 1 0.000333986 
6661 2 6.79087 9.45245 2.39665 1 0.000598209 
6658 2 8.36685 8.66488 0.636316 1 0.000234663 
6664 2 9.15554 10.2393 2.39614 1 7.89966e-05 
6689 2 10.7304 9.45227 0.635909 1 2.89652e-05 
6893 2 12.5677 7.87853 1.22231 1 1.96026e-06 
6894 2 13.0923 10.2396 0.635548 1 3.42369e-06 
6896 2 14.9291 8.66554 1.22196 1 2.22892e-07 
7200 2 17.2904 9.45259 1.22164 1 3.69505e-08 
7198 2 19.1271 7.87838 1.8081 1 2.01328e-08 
7203 2 19.6518 10.2397 1.2214 1 1.34704e-08 
7545 2 21.4884 8.6655 1.80794 1 2.01216e-09 
7577 2 23.0626 7.87843 0.0478341 1 2.73744e-10 
9 4 -70.3625 11.8111 1.09604 5 24.7808 
85 4 -68.0012 11.024 1.09604 1 1.39757e-15 
86 4 -66.1647 12.5982 1.68271 1 1e-16 
220 4 -63.8034 11.8111 1.68271 1 6.99202e-16 
245 4 -61.4421 11.024 1.68271 1 1.04255e-08 
455 1 -59.6055 12.5982 2.26935 1 3.89423e-09 
458 1 -57.2442 11.811 2.26929 1 1.71712e-09 
478 1 -55.67 12.5981 0.509223 1 3.16277e-09 
758 1 -54.8829 11.0239 2.26919 1 6.21146e-09 
759 1 -53.3087 11.8109 0.509156 1 9.15105e-09 
779 1 -50.9474 11.0239 0.509129 1 1.95964e-09 
1138 1 -49.1109 12.5981 1.09576 1 6.45598e-09 
1140 1 -46.7496 11.8111 1.09567 1 2.2924e-09 
1569 1 -44.3883 11.024 1.09556 1 3.27023e-09 
1570 1 -42.5517 12.5983 1.68212 1 1.00717e-08 
1980 1 -40.1904 11.8113 1.6819 1 3.54522e-09 
2005 1 -37.8292 11.0243 1.68165 1 9.55581e-09 
2419 1 -35.9926 12.5986 2.26816 1 2.22225e-09 
2422 1 -33.6313 11.8117 2.26793 1 3.15468e-09 
2442 1 -32.0571 12.5989 0.507762 1 7.7325e-09 
2854 1 -31.27 11.0248 2.26767 1 1.02154e-08 
2855 1 -29.6958 11.812 0.507475 1 6.55511e-09 
2875 1 -27.3346 11.0249 0.507187 1 2.87512e-09 
3294 1 -25.498 12.5992 1.09365 1 4.85656e-09 
3296 1 -23.1367 11.8122 1.09339 1 3.73705e-09 
3729 1 -20.7754 11.0252 1.0931 1 9.30401e-09 
3730 1 -18.9389 12.5995 1.67956 1 8.08405e-08 
4140 1 -16.5778 11.8125 1.67937 1 5.20218e-07 
4165 1 -14.2167 11.0255 1.67925 1 4.01605e-06 
4579 1 -12.3799 12.5999 2.26558 1 5.68267e-06 
4582 1 -10.0187 11.8135 2.26548 1 5.1579e-05 
4602 1 -8.4487 12.6012 0.504558 1 0.000742871 
5014 1 -7.65748 11.028 2.26635 1 0.000572395 
5015 1 -6.09586 11.8209 0.508261 1 0.0100054 
5035 1 -3.7652 11.0718 0.498203 1 0.294422 
5447 1 -1.62179 12.7322 1.05123 5 4.09337 
6487 2 0.643624 11.8039 1.22908 5 4.33786 
6539 2 3.11795 12.6003 1.21566 1 0.0270984 
6537 2 4.95866 11.026 1.80472 1 0.002482 
6662 2 7.32146 11.813 1.80834 1 0.000260147 
6690 2 8.89619 11.0265 0.0490355 1 5.67233e-05 
6691 2 9.68207 12.601 1.80882 1 3.0909e-05 
6692 2 11.2566 11.8139 0.0489923 1 8.9073e-06 
6897 2 11.5178 11.0267 2.39573 1 1.03742e-05 
6900 2 13.8794 11.8139 2.39538 1 1.38479e-06 
6923 2 15.4538 11.0268 0.635193 1 3.87064e-07 
6924 2 13.6175 12.601 0.0487154 1 1.21027e-06 
7201 2 17.8152 11.8139 0.6349 1 5.29628e-08 
7204 2 16.2409 12.601 2.39508 1 1.82019e-07 
7228 2 20.1765 12.601 0.634692 1 8.94611e-09 
7580 2 22.0131 11.0268 1.22125 1 2.40122e-09 
8 4 -70.8872 14.1724 1.68271 5 37.1712 
60 4 -68.526 13.3853 1.68271 1 9.00002e-16 
66 4 -66.6894 14.9595 2.26937 1 1.0002e-15 
223 4 -64.3281 14.1724 2.26937 1 1.5002e-15 
224 4 -62.7539 14.9595 0.509374 1 1.40509e-09 
226 4 -61.9668 13.3853 2.26937 1 5.28633e-09 
248 1 -60.3926 14.1724 0.509365 1 4.35169e-09 
456 1 -58.0313 13.3852 0.509312 1 2.22503e-09 
461 1 -56.1947 14.9594 1.09592 1 3.32023e-09 
762 1 -53.8334 14.1722 1.09583 1 1.25664e-08 
764 1 -51.4722 13.3852 1.09581 1 2.2367e-09 
1110 1 -49.6356 14.9594 1.68245 1 6.67579e-09 
1139 1 -47.2743 14.1723 1.68236 1 2.99193e-09 
1543 1 -44.913 13.3853 1.68225 1 1.88181e-09 
1549 1 -43.0765 14.9596 2.26882 1 1.03862e-08 
1983 1 -40.7152 14.1726 2.26863 1 6.46042e-09 
1984 1 -39.141 14.9597 0.508457 1 4.35108e-09 
1986 1 -38.3539 13.3856 2.26838 1 4.37492e-09 
2008 1 -36.7797 14.1728 0.508233 1 4.11495e-09 
2420 1 -34.4184 13.3858 0.508012 1 1.84818e-09 
2425 1 -32.5818 14.9602 1.09449 1 6.5233e-09 
2858 1 -30.2206 14.1732 1.09421 1 9.51664e-09 
2860 1 -27.8593 13.3862 1.09392 1 1.79477e-09 
3266 1 -26.0227 14.9604 1.68037 1 2.42191e-09 
3295 1 -23.6615 14.1734 1.68011 1 6.402e-09 
3703 1 -21.3002 13.3865 1.67984 1 9.96616e-09 
3709 1 -19.4636 14.9608 2.26628 1 1.64599e-08 
4143 1 -17.1023 14.1738 2.26604 1 8.88345e-08 
4144 1 -15.5282 14.961 0.505884 1 5.43608e-07 
4146 1 -14.7411 13.3869 2.26582 1 6.43681e-07 
4168 1 -13.1672 14.1742 0.505608 1 5.97302e-06 
4580 1 -10.8069 13.3873 0.505122 1 6.51733e-05 
4585 1 -8.96772 14.9602 1.09103 1 0.000430522 
5018 1 -6.60238 14.1708 1.08821 1 0.00491654 
5020 1 -4.21422 13.3924 1.09403 1 0.104444 
5423 1 -2.46224 14.9894 1.66284 5 4.26338 
5429 1 -0.235446 14.9426 2.34542 5 6.80099 
6488 2 1.22834 14.1568 0.620972 5 0.935429 
6540 2 3.62937 14.9506 0.646389 1 0.0171511 
6542 2 5.48305 13.3874 1.22497 1 0.00124967 
6693 2 7.84424 14.1758 1.22313 1 0.000138645 
6696 2 10.206 14.9626 1.22265 1 1.84721e-05 
6898 2 12.0432 13.3882 1.80879 1 4.60577e-06 
6925 2 14.4045 14.1752 1.8086 1 6.12145e-07 
6926 2 15.9787 13.3881 0.0484273 1 1.80959e-07 
7205 2 16.7658 14.9623 1.80833 1 9.56717e-08 
7229 2 18.34 14.1752 0.0481703 1 4.0537e-08 
7207 2 18.6023 13.388 2.39482 1 3.5445e-08 
7231 2 20.7013 14.9623 0.0479889 1 5.14886e-09 
7584 2 20.9636 14.1752 2.39464 1 2.4503e-09 
7581 2 22.5379 13.3881 0.634533 1 1.12556e-09 
7587 2 23.325 14.9623 2.39448 1 7.4398e-10 
10 4 -69.8378 17.3208 0.509374 5 12.3904 
63 4 -69.0507 15.7466 2.26937 5 6.1952 
64 4 -67.4765 16.5337 0.509374 1 6.01082e-16 
69 4 -65.6399 18.1079 1.09604 1 1.19996e-15 
89 4 -65.1152 15.7466 0.509374 1 1.00108e-15 
227 4 -63.2787 17.3208 1.09604 1 4.62317e-10 
229 1 -60.9174 16.5337 1.09604 1 6.68599e-09 
427 1 -59.0808 18.1078 1.68268 1 4.30345e-09 
459 1 -58.556 15.7465 1.096 1 2.48179e-09 
460 1 -56.7195 17.3207 1.6826 1 1.59006e-09 
732 1 -54.3582 16.5335 1.6825 1 1.48493e-08 
738 1 -52.5216 18.1077 2.26915 1 5.9216e-09 
763 1 -51.9969 15.7464 1.68247 1 3.22763e-09 
1113 1 -50.1603 17.3207 2.26912 1 4.30854e-09 
1114 1 -48.5861 18.1078 0.50908 1 5.71727e-09 
1116 1 -47.799 16.5336 2.26905 1 3.72801e-09 
1142 1 -46.2248 17.3208 0.508977 1 1.27001e-09 
1546 1 -45.4378 15.7466 2.26894 1 2.37452e-09 
1547 1 -43.8636 16.5337 0.508868 1 7.73493e-09 
1552 1 -42.027 18.108 1.09541 1 9.93013e-09 
1573 1 -41.5023 15.7467 0.5087 1 1.07855e-08 
1987 1 -39.6657 17.321 1.09518 1 9.45796e-10 
1989 1 -37.3044 16.534 1.09494 1 5.86046e-09 
2391 1 -35.4679 18.1083 1.68145 1 3.16827e-09 
2423 1 -34.9431 15.7471 1.09474 1 3.35918e-09 
2424 1 -33.1066 17.3214 1.68121 1 2.82892e-09 
2828 1 -30.7453 16.5345 1.68094 1 1.1261e-08 
2834 1 -28.9087 18.1087 2.26737 1 3.96947e-09 
2859 1 -28.384 15.7475 1.68065 1 3.17936e-09 
3269 1 -26.5475 17.3217 2.2671 1 1.191e-09 
3270 1 -24.9733 18.1089 0.506927 1 3.04545e-09 
3272 1 -24.1862 16.5347 2.26684 1 4.52618e-09 
3298 1 -22.612 17.3219 0.506656 1 3.3409e-09 
3706 1 -21.8249 15.7477 2.26656 1 4.23529e-09 
3707 1 -20.2507 16.5349 0.506365 1 1.17896e-08 
3712 1 -18.4142 18.1092 1.09283 1 8.14735e-08 
3733 1 -17.8895 15.748 0.506099 1 7.3066e-08 
4147 1 -16.0529 17.3222 1.09263 1 6.03638e-07 
4149 1 -13.6914 16.5351 1.09242 1 5.08198e-06 
4551 1 -11.8561 18.1096 1.67926 1 2.99394e-05 
4583 1 -11.3297 15.7481 1.09205 1 4.5973e-05 
4584 1 -9.49654 17.3232 1.67946 1 0.00025439 
4988 1 -7.14236 16.5354 1.67879 1 0.00257281 
4994 1 -5.30093 18.1063 2.26214 1 0.0116086 
5019 1 -4.80158 15.7444 1.67916 1 0.0299431 
5426 1 -2.95688 17.2771 2.319 5 1.9123 
5427 1 -1.60386 18.1413 0.626672 5 6.56395 
6489 2 0.259878 17.2535 1.79716 5 3.91315 
6490 2 1.83594 16.5123 0.0593659 1 0.121212 
6543 2 2.06506 15.747 2.43842 1 0.177769 
6544 2 2.58223 18.1223 1.79587 1 0.053173 
6546 2 4.42135 16.5406 2.39659 1 0.00629658 
6557 2 4.17545 17.3237 0.0494774 1 0.00542955 
6556 2 6.00026 15.7475 0.637288 1 0.00177052 
6559 2 6.53559 18.1105 0.0483843 1 0.000333976 
6697 2 6.79088 17.3234 2.39665 1 0.000598116 
6694 2 8.36685 16.5358 0.636316 1 0.000234701 
6700 2 9.15554 18.1102 2.39614 1 7.89949e-05 
6715 2 10.7304 17.3232 0.635909 1 2.89737e-05 
6927 2 12.5677 15.7495 1.22231 1 1.95978e-06 
6928 2 13.0923 18.1106 0.635548 1 3.42506e-06 
6930 2 14.9291 16.5365 1.22196 1 2.21828e-07 
7232 2 17.2904 17.3235 1.22164 1 3.68231e-08 
7230 2 19.1271 15.7493 1.8081 1 1.99962e-08 
7235 2 19.6518 18.1106 1.2214 1 1.31596e-08 
7585 2 21.4884 16.5365 1.80794 1 2.04082e-09 
7607 2 23.0626 15.7494 0.0478335 1 2.89934e-10 
5 4 -70.3625 19.6821 1.09604 5 24.7808 
67 4 -68.0012 18.895 1.09604 1 1.39996e-15 
68 4 -66.1647 20.4692 1.68271 1 1e-16 
193 4 -63.8034 19.6821 1.68271 1 7.00001e-16 
228 4 -61.4421 18.895 1.68271 1 1.02693e-08 
430 1 -59.6055 20.4691 2.26935 1 3.74243e-09 
433 1 -57.2442 19.682 2.26929 1 1.62042e-09 
463 1 -55.67 20.469 0.509224 1 2.9775e-09 
735 1 -54.8829 18.8948 2.2692 1 5.90898e-09 
736 1 -53.3087 19.6819 0.509156 1 9.47235e-09 
766 1 -50.9474 18.8948 0.509128 1 1.85899e-09 
1117 1 -49.1109 20.4691 1.09576 1 6.27618e-09 
1119 1 -46.7496 19.682 1.09567 1 2.24968e-09 
1550 1 -44.3883 18.895 1.09556 1 2.92045e-09 
1551 1 -42.5517 20.4693 1.68212 1 1.001e-08 
1953 1 -40.1904 19.6823 1.68191 1 3.49082e-09 
1988 1 -37.8292 18.8953 1.68166 1 9.75657e-09 
2394 1 -35.9926 20.4696 2.26816 1 2.30626e-09 
2397 1 -33.6313 19.6827 2.26793 1 3.22425e-09 
2427 1 -32.0571 20.4699 0.507762 1 8.05171e-09 
2831 1 -31.27 18.8957 2.26767 1 1.04954e-08 
2832 1 -29.6958 19.6829 0.507475 1 6.43704e-09 
2862 1 -27.3346 18.8959 0.507187 1 2.93378e-09 
3273 1 -25.498 20.4701 1.09365 1 4.85938e-09 
3275 1 -23.1367 19.6831 1.09339 1 3.65697e-09 
3710 1 -20.7754 18.8962 1.09311 1 9.14234e-09 
3711 1 -18.9389 20.4705 1.67956 1 8.03725e-08 
4113 1 -16.5778 19.6835 1.67937 1 5.20969e-07 
4148 1 -14.2167 18.8965 1.67925 1 4.01942e-06 
4554 1 -12.3799 20.4709 2.26558 1 5.68239e-06 
4557 1 -10.0187 19.6844 2.26548 1 5.1583e-05 
4587 1 -8.4487 20.4722 0.504558 1 0.000742838 
4991 1 -7.65748 18.8989 2.26635 1 0.000572424 
4992 1 -6.09586 19.6918 0.508261 1 0.0100055 
5022 1 -3.76521 18.9428 0.498204 1 0.294429 
5430 1 -1.62179 20.6032 1.05123 5 4.09333 
6491 2 0.643622 19.6749 1.22908 5 4.33785 
6560 2 3.11795 20.4712 1.21566 1 0.0270997 
6558 2 4.95866 18.8969 1.80472 1 0.00248204 
6698 2 7.32146 19.684 1.80834 1 0.000260089 
6716 2 8.89619 18.8974 0.0490353 1 5.67256e-05 
6717 2 9.68207 20.4719 1.80882 1 3.09005e-05 
6718 2 11.2566 19.6848 0.0489922 1 8.9163e-06 
6931 2 11.5178 18.8977 2.39573 1 1.03732e-05 
6934 2 13.8794 19.6848 2.39538 1 1.38582e-06 
6947 2 15.4538 18.8977 0.635192 1 3.86169e-07 
6948 2 13.6175 20.472 0.0487153 1 1.21139e-06 
7233 2 17.8152 19.6848 0.6349 1 5.26916e-08 
7236 2 16.2409 20.4719 2.39508 1 1.81548e-07 
7250 2 20.1765 20.4719 0.634691 1 8.86276e-09 
7610 2 22.0131 18.8978 1.22125 1 2.5724e-09 
4 4 -70.8872 22.0433 1.68271 5 37.1712 
40 4 -68.526 21.2563 1.68271 1 9.00002e-16 
46 4 -66.6894 22.8304 2.26937 1 1.0002e-15 
196 4 -64.3281 22.0433 2.26937 1 1.5002e-15 
197 4 -62.7539 22.8304 0.509374 1 1.38769e-09 
199 4 -61.9668 21.2563 2.26937 1 5.17306e-09 
231 1 -60.3926 22.0433 0.509366 1 4.34118e-09 
431 1 -58.0313 21.2562 0.509313 1 2.33989e-09 
436 1 -56.1947 22.8303 1.09592 1 3.53007e-09 
739 1 -53.8334 22.0432 1.09583 1 1.28067e-08 
741 1 -51.4722 21.2561 1.0958 1 1.96067e-09 
1081 1 -49.6356 22.8304 1.68244 1 6.42034e-09 
1118 1 -47.2743 22.0433 1.68236 1 2.86295e-09 
1515 1 -44.913 21.2563 1.68225 1 1.88396e-09 
1521 1 -43.0765 22.8305 2.26882 1 1.02618e-08 
1956 1 -40.7152 22.0435 2.26863 1 6.31444e-09 
1957 1 -39.141 22.8307 0.508458 1 4.36414e-09 
1959 1 -38.3539 21.2565 2.26838 1 4.49013e-09 
1991 1 -36.7797 22.0437 0.508233 1 4.2131e-09 
2395 1 -34.4184 21.2568 0.508012 1 1.81406e-09 
2400 1 -32.5818 22.8311 1.09449 1 6.48999e-09 
2835 1 -30.2206 22.0442 1.09421 1 9.33991e-09 
2837 1 -27.8593 21.2572 1.09392 1 1.71974e-09 
3237 1 -26.0227 22.8314 1.68037 1 2.48554e-09 
3274 1 -23.6615 22.0444 1.68011 1 6.18029e-09 
3675 1 -21.3002 21.2574 1.67984 1 1.00474e-08 
3681 1 -19.4636 22.8317 2.26628 1 1.67272e-08 
4116 1 -17.1023 22.0448 2.26604 1 8.89228e-08 
4117 1 -15.5282 22.832 0.505884 1 5.43213e-07 
4119 1 -14.7411 21.2578 2.26582 1 6.41903e-07 
4151 1 -13.1672 22.0451 0.505608 1 5.96722e-06 
4555 1 -10.8069 21.2583 0.505122 1 6.51594e-05 
4560 1 -8.96772 22.8311 1.09103 1 0.000430493 
4995 1 -6.60238 22.0417 1.08821 1 0.00491654 
4997 1 -4.21422 21.2633 1.09403 1 0.104444 
5397 1 -2.46224 22.8604 1.66284 5 4.26339 
5403 1 -0.235445 22.8135 2.34542 5 6.801 
6492 2 1.22834 22.0278 0.62097 5 0.935433 
6561 2 3.62937 22.8216 0.646388 1 0.017151 
6563 2 5.48305 21.2584 1.22497 1 0.00124963 
6719 2 7.84424 22.0468 1.22313 1 0.000138623 
6722 2 10.206 22.8336 1.22265 1 1.84736e-05 
6932 2 12.0432 21.2591 1.80879 1 4.60437e-06 
6949 2 14.4045 22.0462 1.8086 1 6.11355e-07 
6950 2 15.9787 21.259 0.0484269 1 1.80211e-07 
7237 2 16.7658 22.8332 1.80833 1 9.50592e-08 
7251 2 18.34 22.0461 0.0481701 1 4.05663e-08 
7239 2 18.6023 21.259 2.39482 1 3.58534e-08 
7253 2 20.7013 22.8332 0.0479884 1 5.32866e-09 
7614 2 20.9636 22.0461 2.39464 1 2.23766e-09 
7611 2 22.5379 21.259 0.634533 1 1.25169e-09 
7617 2 23.325 22.8333 2.39448 1 7.48186e-10 
6 4 -69.8378 25.1917 0.509374 5 12.3904 
43 4 -69.0507 23.6175 2.26937 5 6.1952 
44 4 -67.4765 24.4046 0.509374 1 6.01082e-16 
49 4 -65.6399 25.9788 1.09604 1 1.19996e-15 
71 4 -65.1152 23.6175 0.509374 1 1.00108e-15 
200 4 -63.2787 25.1917 1.09604 1 4.61387e-10 
202 1 -60.9174 24.4046 1.09604 1 6.34264e-09 
397 1 -59.0808 25.9788 1.68268 1 4.56695e-09 
434 1 -58.556 23.6175 1.096 1 2.52362e-09 
435 1 -56.7195 25.1916 1.6826 1 1.65249e-09 
703 1 -54.3582 24.4045 1.6825 1 1.47354e-08 
709 1 -52.5216 25.9787 2.26915 1 5.9011e-09 
740 1 -51.9969 23.6174 1.68247 1 3.12624e-09 
1084 1 -50.1603 25.1916 2.26912 1 4.09497e-09 
1085 1 -48.5861 25.9788 0.509081 1 6.25509e-09 
1087 1 -47.799 24.4046 2.26905 1 3.73956e-09 
1121 1 -46.2248 25.1917 0.508977 1 1.37214e-09 
1518 1 -45.4378 23.6175 2.26894 1 2.58111e-09 
1519 1 -43.8636 24.4047 0.508868 1 7.49808e-09 
1524 1 -42.027 25.979 1.09541 1 9.8123e-09 
1554 1 -41.5023 23.6177 0.5087 1 1.07981e-08 
1960 1 -39.6657 25.192 1.09518 1 9.51188e-10 
1962 1 -37.3044 24.405 1.09494 1 5.67657e-09 
2361 1 -35.4679 25.9793 1.68145 1 2.9797e-09 
2398 1 -34.9431 23.6181 1.09474 1 3.19011e-09 
2399 1 -33.1066 25.1924 1.68121 1 2.65503e-09 
2799 1 -30.7453 24.4054 1.68094 1 1.1351e-08 
2805 1 -28.9087 25.9797 2.26737 1 4.01852e-09 
2836 1 -28.384 23.6184 1.68065 1 3.11492e-09 
3240 1 -26.5475 25.1927 2.2671 1 1.27337e-09 
3241 1 -24.9733 25.9798 0.506927 1 3.08797e-09 
3243 1 -24.1862 24.4057 2.26684 1 4.68047e-09 
3277 1 -22.612 25.1928 0.506657 1 3.34822e-09 
3678 1 -21.8249 23.6187 2.26656 1 4.15041e-09 
3679 1 -20.2507 24.4059 0.506365 1 1.17133e-08 
3684 1 -18.4142 25.9801 1.09283 1 8.13775e-08 
3714 1 -17.8895 23.6189 0.506098 1 7.34906e-08 
4120 1 -16.0529 25.1931 1.09263 1 6.0426e-07 
4122 1 -13.6914 24.4061 1.09242 1 5.07825e-06 
4521 1 -11.8561 25.9806 1.67926 1 2.99386e-05 
4558 1 -11.3297 23.619 1.09205 1 4.59501e-05 
4559 1 -9.49654 25.1941 1.67946 1 0.000254337 
4959 1 -7.14236 24.4063 1.67879 1 0.00257296 
4965 1 -5.30093 25.9773 2.26214 1 0.0116105 
4996 1 -4.80158 23.6154 1.67916 1 0.0299432 
5400 1 -2.95688 25.1481 2.31901 5 1.91233 
5401 1 -1.60384 26.0123 0.626666 5 6.56383 
6493 2 0.259874 25.1245 1.79716 5 3.91312 
6494 2 1.83594 24.3833 0.0593663 1 0.121208 
6564 2 2.06506 23.618 2.43842 1 0.177767 
6565 2 2.58223 25.9933 1.79587 1 0.0531727 
6567 2 4.42135 24.4116 2.39659 1 0.00629659 
6574 2 4.17544 25.1947 0.0494766 1 0.00543037 
6573 2 6.00026 23.6185 0.637287 1 0.00177048 
6576 2 6.53559 25.9814 0.0483843 1 0.00033394 
6723 2 6.79088 25.1944 2.39665 1 0.000598083 
6720 2 8.36685 24.4068 0.636316 1 0.000234714 
6726 2 9.15554 25.9812 2.39614 1 7.89968e-05 
6731 2 10.7304 25.1942 0.635909 1 2.89762e-05 
6951 2 12.5677 23.6204 1.22231 1 1.95911e-06 
6952 2 13.0923 25.9815 0.635547 1 3.42525e-06 
6954 2 14.9291 24.4075 1.22196 1 2.22375e-07 
7254 2 17.2904 25.1945 1.22164 1 3.6512e-08 
7252 2 19.1271 23.6203 1.8081 1 2.0137e-08 
7257 2 19.6518 25.9816 1.2214 1 1.35416e-08 
7615 2 21.4884 24.4074 1.80794 1 2.04893e-09 
7627 2 23.0626 23.6203 0.0478337 1 2.95496e-10 
2 4 -70.3625 27.553 1.09604 5 24.7808 
47 4 -68.0012 26.7659 1.09604 1 1.39996e-15 
48 4 -66.1647 28.3401 1.68271 1 2.00001e-16 
164 4 -63.8034 27.553 1.68271 1 7.00001e-16 
201 4 -61.4421 26.7659 1.68271 1 1.02948e-08 
400 1 -59.6055 28.3401 2.26935 1 3.60236e-09 
403 1 -57.2442 27.5529 2.26929 1 1.60105e-09 
438 1 -55.67 28.34 0.509223 1 3.28709e-09 
706 1 -54.8829 26.7658 2.2692 1 5.93181e-09 
707 1 -53.3087 27.5529 0.509156 1 8.97135e-09 
743 1 -50.9474 26.7658 0.509127 1 1.70887e-09 
1088 1 -49.1109 28.34 1.09576 1 6.28908e-09 
1090 1 -46.7496 27.553 1.09567 1 2.18078e-09 
1522 1 -44.3883 26.766 1.09556 1 3.05207e-09 
1523 1 -42.5517 28.3402 1.68212 1 1.03233e-08 
1923 1 -40.1904 27.5532 1.68191 1 3.3943e-09 
1961 1 -37.8292 26.7662 1.68166 1 9.44656e-09 
2364 1 -35.9926 28.3405 2.26816 1 2.38354e-09 
2367 1 -33.6313 27.5536 2.26793 1 3.13281e-09 
2402 1 -32.0571 28.3408 0.507762 1 7.62587e-09 
2802 1 -31.27 26.7667 2.26767 1 1.0392e-08 
2803 1 -29.6958 27.5539 0.507475 1 6.73842e-09 
2839 1 -27.3346 26.7668 0.507187 1 2.84122e-09 
3244 1 -25.498 28.3411 1.09365 1 4.95967e-09 
3246 1 -23.1367 27.5541 1.09339 1 3.70773e-09 
3682 1 -20.7754 26.7671 1.0931 1 9.322e-09 
3683 1 -18.9389 28.3414 1.67956 1 8.03671e-08 
4083 1 -16.5778 27.5545 1.67937 1 5.20078e-07 
4121 1 -14.2167 26.7675 1.67925 1 4.02143e-06 
4524 1 -12.3799 28.3418 2.26558 1 5.68217e-06 
4527 1 -10.0187 27.5554 2.26548 1 5.15907e-05 
4562 1 -8.44871 28.3431 0.504558 1 0.000742969 
4962 1 -7.65748 26.7699 2.26635 1 0.000572443 
4963 1 -6.09586 27.5628 0.508262 1 0.0100053 
4999 1 -3.76521 26.8137 0.498202 1 0.294453 
5404 1 -1.62178 28.4742 1.05123 5 4.09336 
6495 2 0.643623 27.5458 1.22908 5 4.33782 
6577 2 3.11795 28.3422 1.21566 1 0.0271004 
6575 2 4.95866 26.7679 1.80472 1 0.0024819 
6724 2 7.32146 27.5549 1.80834 1 0.00026007 
6732 2 8.89619 26.7684 0.0490352 1 5.67465e-05 
6733 2 9.68207 28.3429 1.80882 1 3.09028e-05 
6734 2 11.2566 27.5558 0.0489919 1 8.92062e-06 
6955 2 11.5178 26.7686 2.39573 1 1.03756e-05 
6958 2 13.8794 27.5558 2.39538 1 1.38609e-06 
6961 2 15.4538 26.7687 0.635192 1 3.86438e-07 
6962 2 13.6175 28.343 0.0487148 1 1.21249e-06 
7255 2 17.8152 27.5558 0.6349 1 5.24437e-08 
7258 2 16.2409 28.3429 2.39508 1 1.81671e-07 
7262 2 20.1765 28.3429 0.634691 1 9.06103e-09 
7630 2 22.0131 26.7687 1.22125 1 2.49137e-09 
1 4 -70.8872 29.9143 1.68271 5 37.1712 
28 4 -68.526 29.1272 1.68271 1 7.0085e-16 
31 4 -66.6894 30.7014 2.26937 1 1.00523e-15 
167 4 -64.3281 29.9143 2.26937 1 1.20274e-15 
168 4 -62.7539 30.7014 0.509374 1 1.38901e-09 
169 4 -61.9668 29.1272 2.26937 1 5.22505e-09 
204 1 -60.3926 29.9143 0.509365 1 4.37831e-09 
401 1 -58.0313 29.1271 0.509312 1 2.2942e-09 
404 1 -56.1947 30.7013 1.09592 1 3.16093e-09 
710 1 -53.8334 29.9142 1.09583 1 1.23597e-08 
711 1 -51.4722 29.1271 1.09581 1 2.17721e-09 
1051 1 -49.6356 30.7013 1.68244 1 6.41121e-09 
1089 1 -47.2743 29.9143 1.68236 1 2.88842e-09 
1485 1 -44.913 29.1272 1.68225 1 1.88156e-09 
1488 1 -43.0765 30.7015 2.26882 1 1.03503e-08 
1926 1 -40.7152 29.9145 2.26863 1 6.13127e-09 
1927 1 -39.141 30.7017 0.508458 1 4.16239e-09 
1928 1 -38.3539 29.1275 2.26838 1 4.31575e-09 
1964 1 -36.7797 29.9147 0.508234 1 4.09807e-09 
2365 1 -34.4184 29.1278 0.508012 1 1.81599e-09 
2368 1 -32.5818 30.7021 1.09449 1 6.54719e-09 