ITEM: TIMESTEP
0
ITEM: NUMBER OF ATOMS
38744
ITEM: BOX BOUNDS ss pp pp
-67.3865 115.602
0 45.8952
0 50.2757
ITEM: ATOMS id type x y z c_cna c_csd 
12 4 -65.1371 2.13483 1.40083 1 7.00048e-16 
128 4 -62.8878 1.18993 1.89373 1 7.00565e-16 
129 4 -60.9598 1.72988 0.415031 1 1.10029e-15 
130 4 -60.6385 0.245033 2.38663 1 6.98601e-16 
373 4 -59.6745 2.53979 2.38663 1 1.64655e-11 
374 4 -58.7105 0.784976 0.90793 1 3.42127e-10 
788 1 -55.4972 2.13484 1.40084 1 2.07014e-09 
842 1 -53.2479 1.18993 1.89372 1 1.92575e-09 
1423 1 -50.9986 0.244988 2.3866 1 2.29788e-09 
1424 1 -50.0345 2.53973 2.38658 1 5.01106e-09 
1426 1 -51.3199 1.72985 0.415008 1 2.24677e-09 
1427 1 -49.0706 0.784899 0.907874 1 6.19916e-09 
2147 1 -45.8572 2.13471 1.40075 1 6.93271e-09 
2987 1 -43.6079 1.18979 1.89363 1 6.78858e-09 
2988 1 -41.68 1.72969 0.414877 1 6.88569e-09 
2989 1 -41.3586 0.244878 2.3865 1 8.7689e-09 
3781 1 -40.3947 2.53962 2.38644 1 6.5637e-09 
3782 1 -39.4307 0.784806 0.907729 1 6.64351e-09 
4574 1 -36.2174 2.13469 1.40054 1 1.70029e-08 
4628 1 -33.9681 1.18986 1.89345 1 1.16645e-08 
5426 1 -32.0401 1.72984 0.414669 1 1.93294e-08 
5423 1 -31.7189 0.245046 2.38642 1 3.00639e-08 
5424 1 -30.755 2.53982 2.38635 1 2.57258e-08 
5427 1 -29.7909 0.785051 0.907662 1 3.89364e-08 
6220 1 -26.578 2.1351 1.40066 1 1.33293e-07 
7067 1 -24.3289 1.19048 1.89392 1 4.66517e-07 
7068 1 -22.4012 1.73066 0.415117 1 9.16689e-07 
7069 1 -22.0798 0.246036 2.38738 1 1.52379e-06 
7861 1 -21.1165 2.54099 2.38727 1 2.04044e-06 
7862 1 -20.1523 0.786575 0.908756 1 3.42221e-06 
8654 1 -16.9409 2.13811 1.40218 1 1.70605e-05 
8708 1 -14.6931 1.19692 1.89726 1 5.84032e-05 
9503 1 -12.4464 0.257295 2.39406 1 0.000254102 
9506 1 -12.7682 1.73936 0.414693 1 0.000133674 
9507 1 -10.526 0.803428 0.909941 1 0.000849786 
10300 1 -7.34703 2.15669 1.39589 1 0.00404504 
11147 1 -5.14658 1.20684 1.88555 1 0.0999249 
11148 1 -3.26188 1.67089 0.292789 5 1.17826 
11149 1 -2.9149 0.511015 2.40112 1 0.559769 
14127 1 -1.05284 1.4291 1.02725 5 4.54027 
15688 2 0.91446 2.31053 0.0718183 5 0.77236 
15689 2 1.67308 0.473418 1.59752 5 0.317005 
16451 2 3.98551 0.910861 0.631029 1 0.0270423 
16455 2 5.92156 1.44046 2.11838 1 0.0398136 
17306 2 8.22482 1.87074 1.14445 1 0.00784751 
17232 2 9.20185 0.124998 2.61155 1 0.00125062 
17308 2 10.1727 2.42189 2.61276 1 0.000784211 
17309 2 10.5027 2.29092 0.15879 1 0.00197777 
18103 2 11.4673 0.537824 1.62953 1 0.000449077 
18106 2 13.7251 0.948231 0.642152 1 0.000177369 
18880 2 15.6596 1.49073 2.11636 1 5.37754e-05 
18955 2 17.9117 1.89773 1.13021 1 2.49289e-05 
19660 2 18.8806 0.144245 2.60624 1 1.33391e-05 
19735 2 19.1993 0.0093806 0.143393 1 8.61311e-06 
19736 2 20.163 2.30425 0.143969 1 1.23045e-05 
19737 2 21.13 0.550155 1.62082 1 5.18654e-06 
19738 2 19.8433 2.43909 2.60701 1 6.86148e-06 
20531 2 23.3795 0.955997 0.635211 1 2.07225e-06 
11 4 -67.3864 3.07974 0.90793 5 37.1712 
90 4 -64.1731 4.42959 1.40083 1 1.20001e-15 
93 4 -61.9238 3.48469 1.89373 1 7.00004e-16 
318 4 -59.9958 4.02464 0.415031 1 3.00009e-16 
320 4 -58.7105 4.83455 2.38663 1 2.15242e-10 
375 4 -57.7465 3.07974 0.90793 1 8.69009e-10 
789 1 -54.5332 4.42959 1.40084 1 4.02562e-09 
1365 1 -52.2839 3.48467 1.89372 1 2.83534e-09 
1369 1 -50.3559 4.0246 0.415003 1 3.94256e-09 
2085 1 -49.0705 4.83449 2.38656 1 2.58726e-09 
2146 1 -48.1066 3.07965 0.907872 1 5.2515e-09 
2930 1 -44.8933 4.42947 1.40072 1 4.06649e-09 
2933 1 -42.644 3.48453 1.89359 1 4.37251e-09 
3724 1 -40.716 4.02445 0.414832 1 8.42557e-09 
3726 1 -39.4307 4.83439 2.38639 1 7.36007e-09 
3783 1 -38.4667 3.07956 0.907678 1 7.7554e-09 
4575 1 -35.2535 4.42945 1.40047 1 2.03842e-08 
5365 1 -33.0042 3.48461 1.89338 1 1.44422e-08 
5369 1 -31.0762 4.0246 0.414576 1 3.31285e-08 
6158 1 -29.7912 4.83462 2.38625 1 2.50429e-08 
6219 1 -28.8271 3.07983 0.907565 1 4.53631e-08 
7010 1 -25.6143 4.42988 1.40049 1 1.325e-07 
7013 1 -23.3653 3.48529 1.89374 1 5.02029e-07 
7804 1 -21.4377 4.02525 0.414643 1 1.11057e-06 
7806 1 -20.1531 4.83565 2.38678 1 3.12446e-06 
7863 1 -19.1891 3.08115 0.908116 1 4.56148e-06 
8655 1 -15.9779 4.43208 1.40036 1 2.74297e-05 
9445 1 -13.7308 3.49168 1.89437 1 8.25049e-05 
9449 1 -11.8052 4.03248 0.407815 1 0.000228067 
9504 1 -11.4861 2.55429 2.39023 1 0.000447495 
10238 1 -10.5222 4.848 2.38152 1 0.00104204 
10299 1 -9.56523 3.09805 0.897335 1 0.00162972 
11090 1 -6.3936 4.43747 1.37503 1 0.033499 
11093 1 -4.23745 3.46335 1.84333 5 0.596275 
11884 1 -2.25334 3.82301 0.154747 5 4.53914 
11941 1 -2.04965 2.95482 2.36936 5 5.07861 
11886 1 -0.22092 4.16239 1.24461 5 4.70987 
15693 2 2.73859 2.79444 1.62603 1 0.0589402 
15761 2 1.89536 4.62094 0.112067 1 0.203791 
16527 2 5.00688 3.21909 0.628837 1 0.0164863 
16529 2 6.93244 3.75467 2.11826 1 0.016116 
17307 2 9.21218 4.1739 1.13924 1 0.00337472 
17313 2 11.1465 4.72107 2.61271 1 0.000627176 
17379 2 11.4787 4.59006 0.152974 1 0.000878441 
18104 2 12.4356 2.83427 1.62905 1 0.000358905 
18178 2 14.6925 3.24417 0.641668 1 0.000160942 
18956 2 16.624 3.78604 2.11691 1 6.4162e-05 
18959 2 18.8763 4.19293 1.13061 1 3.00415e-05 
19739 2 20.8068 4.73411 2.6077 1 7.4978e-06 
19809 2 21.1275 4.59937 0.144274 1 1.44801e-05 
19741 2 22.0932 2.84504 1.6214 1 3.0722e-06 
1 4 -67.3864 7.12931 2.38663 5 37.1712 
3 4 -66.4224 5.37449 0.90793 5 18.5856 
62 4 -63.2091 6.72435 1.40083 1 6.0001e-16 
317 4 -60.9598 5.77945 1.89373 1 1.1e-15 
319 4 -59.0318 6.3194 0.415031 1 9.35723e-11 
729 4 -57.7465 7.12931 2.38663 1 9.70347e-10 
730 1 -56.7825 5.37449 0.907935 1 8.24743e-10 
1308 1 -53.5692 6.72434 1.40083 1 2.54158e-09 
1366 1 -51.3199 5.77942 1.8937 1 1.90277e-09 
2086 1 -48.1066 7.12926 2.38655 1 4.54425e-09 
2088 1 -49.3919 6.31936 0.414994 1 3.76463e-09 
2089 1 -47.1426 5.37441 0.90786 1 1.83187e-09 
2874 1 -43.9293 6.72424 1.4007 1 1.94886e-09 
3723 1 -41.68 5.7793 1.89354 1 5.02122e-09 
3725 1 -39.752 6.31923 0.414789 1 7.36419e-09 
4515 1 -38.4668 7.12917 2.38633 1 1.20511e-08 
4516 1 -37.5027 5.37433 0.907613 1 1.82496e-08 
5308 1 -34.2896 6.72422 1.4004 1 3.27351e-08 
5366 1 -32.0404 5.77939 1.89329 1 2.42859e-08 
6161 1 -30.1124 6.3194 0.414463 1 5.36043e-08 
6159 1 -28.8274 7.12942 2.38614 1 4.78092e-08 
6162 1 -27.8633 5.37461 0.907417 1 4.72948e-08 
6954 1 -24.6506 6.72463 1.40026 1 2.7638e-07 
7803 1 -22.4018 5.77998 1.89338 1 8.4975e-07 
7805 1 -20.4741 6.31967 0.414106 1 2.41671e-06 
8595 1 -19.1891 7.1299 2.38591 1 6.16189e-06 
8596 1 -18.2258 5.37524 0.907068 1 8.24347e-06 
9388 1 -15.0129 6.72492 1.39766 1 6.1671e-05 
9446 1 -12.7654 5.78444 1.88899 1 0.000193706 
10239 1 -9.54149 7.13534 2.37039 1 0.00197306 
10241 1 -10.8346 6.32338 0.400538 1 0.000884303 
10242 1 -8.59498 5.38846 0.882499 1 0.00680623 
11034 1 -5.34502 6.67353 1.3883 1 0.0776966 
11883 1 -2.97962 5.55916 1.90651 5 4.52647 
11885 1 -1.2953 6.0709 0.207318 5 5.50627 
15118 2 0.744804 6.48404 1.22816 5 4.64258 
15762 2 2.87436 6.91792 0.117943 1 0.105462 
15764 2 2.62493 7.02001 2.63788 1 0.176568 
15763 2 3.79363 5.11986 1.6075 1 0.0270595 
15767 2 4.79445 7.42808 1.60535 1 0.0171062 
16528 2 6.02268 5.52442 0.621357 1 0.00889195 
16533 2 7.93502 6.06483 2.11585 1 0.00472253 
17380 2 10.1954 6.47719 1.13261 1 0.00105747 
17382 2 12.1209 7.02055 2.61081 1 0.000331957 
17383 2 12.4523 6.88901 0.146868 1 0.00028063 
18179 2 13.4055 5.13175 1.62737 1 0.000267843 
18180 2 14.3758 7.42914 1.62491 1 0.000133533 
18182 2 15.6606 5.54053 0.640267 1 0.000115636 
18957 2 17.5895 6.08164 2.11696 1 6.28727e-05 
19027 2 19.8415 6.48832 1.13061 1 2.80192e-05 
19810 2 22.0925 6.89464 0.144306 1 1.26953e-05 
19811 2 23.057 5.14006 1.62191 1 3.87601e-06 
19812 2 21.7708 7.02924 2.6082 1 9.92471e-06 
19815 2 24.0211 7.43514 1.62226 1 4.8599e-06 
37 4 -66.4224 9.42407 2.38663 5 18.5856 
61 4 -65.4584 7.66925 0.90793 5 6.1952 
41 4 -64.4944 9.96401 0.90793 1 6.01208e-16 
266 4 -62.2451 9.01911 1.40083 1 2.9981e-16 
269 4 -59.9958 8.07421 1.89373 1 5.00205e-16 
672 4 -58.0678 8.61415 0.415031 1 4.61869e-10 
674 1 -56.7825 9.42406 2.38663 1 2.20485e-09 
731 1 -55.8185 7.66925 0.907939 1 2.46682e-09 
1250 1 -54.8545 9.964 0.907928 1 2.2623e-09 
1309 1 -52.6052 9.01908 1.40082 1 3.1659e-09 
2027 1 -50.3559 8.07418 1.89369 1 2.14775e-09 
2031 1 -48.4279 8.61413 0.414981 1 2.91527e-09 
2812 1 -47.1426 9.42403 2.38655 1 4.06471e-09 
2816 1 -45.2147 9.96396 0.907827 1 4.95953e-09 
2873 1 -46.1786 7.66919 0.907842 1 1.60065e-09 
3665 1 -42.9654 9.01902 1.40067 1 2.73963e-09 
3668 1 -40.7161 8.07409 1.89351 1 3.78581e-09 
4458 1 -38.7881 8.61404 0.414756 1 5.85087e-09 
4460 1 -37.5029 9.42397 2.38631 1 9.02637e-09 
4517 1 -36.5388 7.66913 0.907564 1 1.83879e-08 
5250 1 -35.5749 9.96396 0.907545 1 1.29282e-08 
5309 1 -33.3257 9.01904 1.40036 1 3.21409e-08 
6100 1 -31.0765 8.07419 1.89321 1 4.44002e-08 
6104 1 -29.1486 8.61422 0.414405 1 7.90204e-08 
6892 1 -27.8636 9.4242 2.38606 1 1.25638e-07 
6953 1 -26.8996 7.66941 0.907287 1 1.37914e-07 
6896 1 -25.9357 9.9642 0.907277 1 2.50298e-07 
7745 1 -23.6867 9.01933 1.40011 1 7.04271e-07 
7748 1 -21.4378 8.07449 1.89297 1 2.00628e-06 
8538 1 -19.5099 8.61394 0.413795 1 5.66357e-06 
8540 1 -18.2237 9.42359 2.38494 1 7.62887e-06 
8597 1 -17.2613 7.66885 0.905945 1 1.84237e-05 
9330 1 -16.2946 9.96198 0.905502 1 2.74712e-05 
9389 1 -14.0436 9.01618 1.39545 1 0.000103944 
10180 1 -11.7912 8.07376 1.8832 1 0.000366592 
10184 1 -9.84753 8.6091 0.398728 1 0.00144796 
10972 1 -8.55953 9.42138 2.36372 1 0.00238637 
10976 1 -6.60977 9.96108 0.878254 1 0.0117429 
11033 1 -7.58469 7.66462 0.877683 1 0.0120377 
11825 1 -4.38372 8.97158 1.40073 1 0.129069 
11827 1 -2.46047 9.51421 0.0589846 5 1.24704 
11828 1 -1.94787 7.83958 1.92549 5 2.56517 
12611 1 -0.782786 10.068 1.9598 5 6.16054 
12612 1 -0.313333 8.336 0.156755 5 5.48909 
15121 2 1.69203 8.80888 1.21147 5 5.43978 
15765 2 3.59 9.32749 2.62245 1 0.122246 
15828 2 3.84467 9.20446 0.127219 1 0.0412653 
15830 2 5.77134 9.72885 1.60454 1 0.0131953 
16597 2 7.0141 7.82798 0.619029 1 0.00495969 
16598 2 7.98838 10.1308 0.616849 1 0.00357314 
16599 2 8.92198 8.3706 2.11193 1 0.00138676 
17381 2 11.1715 8.77857 1.1268 1 0.000323621 
17387 2 13.0938 9.31908 2.608 1 0.000117039 
17446 2 13.4225 9.1868 0.142198 1 8.0383e-05 
18247 2 15.3453 9.726 1.62246 1 4.38759e-05 
18246 2 16.6287 7.8368 0.638407 1 5.55641e-05 
18250 2 17.5961 10.1328 0.636656 1 1.79696e-05 
19028 2 18.5557 8.3773 2.1165 1 4.31802e-05 
19031 2 20.8071 8.78375 1.13025 1 1.82994e-05 
19813 2 22.7353 9.32441 2.60838 1 9.59432e-06 
19876 2 23.0576 9.18993 0.144061 1 7.88035e-06 
38 4 -65.4584 11.7188 2.38663 5 6.1952 
40 4 -66.7438 10.9089 0.415031 5 24.7808 
225 4 -63.5305 12.2588 0.90793 1 2.00007e-16 
226 4 -61.2811 11.3139 1.40083 1 6.0061e-16 
616 4 -58.0678 12.6637 1.89373 1 2.70195e-09 
671 4 -59.0318 10.369 1.89373 1 2.20667e-10 
673 1 -57.1038 10.9089 0.415028 1 1.4165e-09 
1249 1 -55.8185 11.7188 2.38661 1 1.36327e-09 
1251 1 -53.8906 12.2588 0.907903 1 2.30293e-09 
1970 1 -51.6413 11.3138 1.4008 1 5.35807e-09 
2028 1 -49.392 10.3689 1.89368 1 2.90103e-09 
2754 1 -48.428 12.6637 1.89368 1 4.05992e-09 
2815 1 -47.464 10.9089 0.414979 1 7.09658e-09 
2813 1 -46.1787 11.7188 2.38655 1 4.38137e-09 
3608 1 -44.2507 12.2587 0.907823 1 1.8829e-09 
3609 1 -42.0014 11.3138 1.40066 1 2.6952e-09 
4457 1 -39.7521 10.3689 1.8935 1 3.88809e-09 
4402 1 -38.7882 12.6637 1.89348 1 4.38864e-09 
4459 1 -37.8242 10.9089 0.414738 1 5.48513e-09 
5249 1 -36.5389 11.7188 2.3863 1 1.00095e-08 
5251 1 -34.611 12.2588 0.90755 1 1.51273e-08 
6043 1 -32.3618 11.3139 1.40035 1 2.61388e-08 
6101 1 -30.1127 10.369 1.89318 1 6.93765e-08 
6834 1 -29.1487 12.6638 1.89324 1 7.32542e-08 
6893 1 -26.8995 11.719 2.38608 1 1.92298e-07 
6895 1 -28.1847 10.9091 0.414444 1 7.98948e-08 
7688 1 -24.9715 12.259 0.907431 1 3.43441e-07 
7689 1 -22.7223 11.314 1.40016 1 9.72543e-07 
8482 1 -19.5078 12.6632 1.89283 1 5.38987e-06 
8537 1 -20.473 10.3688 1.8927 1 2.60876e-06 
8539 1 -18.5446 10.9082 0.414074 1 8.34041e-06 
9329 1 -17.2575 11.7172 2.38448 1 1.7165e-05 
9331 1 -15.328 12.2559 0.906561 1 5.2113e-05 
10123 1 -13.0744 11.3078 1.39577 1 0.000208757 
10181 1 -10.8166 10.3626 1.88104 1 0.000652412 
10914 1 -9.85094 12.657 1.8869 1 0.000590551 
10973 1 -7.59166 11.718 2.37085 1 0.00210197 
10975 1 -8.87445 10.9026 0.402083 1 0.00142589 
11768 1 -5.65149 12.2662 0.897831 1 0.0149771 
11769 1 -3.42212 11.2977 1.42728 1 0.428912 
12558 1 -1.44738 11.825 0.187812 5 3.24004 
15181 2 0.394559 12.3086 1.98863 5 8.25443 
15180 2 2.61234 11.1067 1.18725 5 4.20547 
15829 2 4.79717 11.4905 0.126725 1 0.0140898 
15831 2 4.53966 11.625 2.60338 1 0.0872885 
15834 2 6.73041 12.0271 1.601 1 0.0132831 
16603 2 9.897 10.6725 2.10817 1 0.000518624 
16659 2 8.94897 12.4309 0.617058 1 0.00354131 
17447 2 12.1416 11.0773 1.12333 1 0.000152832 
17449 2 14.064 11.6163 2.60571 1 4.82087e-05 
17450 2 14.3894 11.4833 0.139687 1 5.73167e-05 
18248 2 16.3129 12.0223 1.6207 1 1.91265e-05 
18306 2 18.5622 12.4285 0.6354 1 8.94771e-06 
19029 2 19.5221 10.6729 2.11573 1 1.96418e-05 
19091 2 21.7726 11.0792 1.12967 1 8.05206e-06 
19877 2 24.0226 11.4852 0.14364 1 3.34902e-06 
19879 2 23.7 11.6196 2.60824 1 6.35649e-06 
26 4 -66.7438 14.9585 1.89373 5 24.7808 
28 4 -65.7798 13.2037 0.415031 5 12.3904 
189 4 -64.4944 14.0136 2.38663 1 6e-16 
193 4 -62.5665 14.5535 0.90793 1 3.00007e-16 
613 4 -60.3171 13.6086 1.40083 1 3.0001e-16 
1191 1 -57.1038 14.9585 1.89371 1 1.53269e-09 
1192 1 -56.1399 13.2037 0.415007 1 1.62451e-09 
1194 1 -54.8546 14.0136 2.38659 1 2.34734e-09 
1912 1 -52.9266 14.5535 0.907878 1 9.1725e-09 
1971 1 -50.6773 13.6086 1.40079 1 4.83838e-09 
2755 1 -47.464 14.9584 1.89368 1 4.60465e-09 
2758 1 -46.5 13.2036 0.414973 1 3.78842e-09 
3547 1 -45.2147 14.0135 2.38654 1 3.83293e-09 
3551 1 -43.2867 14.5535 0.907811 1 3.32367e-09 
4399 1 -41.0374 13.6086 1.40065 1 2.38989e-09 
5191 1 -37.8242 14.9585 1.89349 1 6.94336e-09 
5192 1 -36.8602 13.2037 0.41473 1 1.18356e-08 
5194 1 -35.575 14.0136 2.38632 1 1.52363e-08 
5985 1 -33.647 14.5536 0.907571 1 2.07236e-08 
6044 1 -31.3978 13.6087 1.40041 1 3.21986e-08 
6835 1 -28.1845 14.9586 1.89338 1 7.31263e-08 
6838 1 -27.2207 13.2039 0.414593 1 1.01755e-07 
7627 1 -25.9352 14.0137 2.38621 1 2.24499e-07 
7631 1 -24.0072 14.5538 0.907764 1 5.66424e-07 
8479 1 -21.7577 13.6087 1.40049 1 1.72565e-06 
9271 1 -18.5433 14.9583 1.89363 1 8.57721e-06 
9272 1 -17.5794 13.203 0.415183 1 1.53026e-05 
9274 1 -16.2924 14.0118 2.3853 1 2.76481e-05 
10065 1 -14.3642 14.5522 0.909539 1 5.10025e-05 
10124 1 -12.1108 13.6028 1.40048 1 0.000226444 
10915 1 -8.89301 14.9571 1.90001 1 0.000746649 
10918 1 -7.91431 13.2021 0.416592 1 0.00182442 
11707 1 -6.63546 14.0241 2.39381 1 0.0106471 
11711 1 -4.72879 14.5869 0.947833 1 0.0800904 
12555 1 -2.43592 13.6484 1.46226 5 0.80757 
12557 1 -0.347231 14.1097 0.351457 5 6.98761 
15182 2 1.49943 14.6796 2.04609 5 8.59982 
15184 2 3.49842 13.3752 1.15233 5 2.11729 
15832 2 5.46863 13.9168 2.58946 1 0.0698073 
15888 2 5.72497 13.7791 0.130252 1 0.00823675 
15890 2 7.6725 14.3233 1.60312 1 0.0124703 
16660 2 9.90009 14.726 0.622138 1 0.00280216 
16661 2 10.8633 12.9702 2.10658 1 0.000340404 
16665 2 11.8233 15.2648 2.10756 1 0.000299012 
17448 2 13.1067 13.3737 1.12259 1 0.000153573 
17454 2 15.0309 13.9125 2.60453 1 5.9706e-05 
17506 2 15.3532 13.7789 0.139197 1 7.70849e-05 
18307 2 17.2786 14.318 1.61982 1 2.72956e-05 
18310 2 19.5269 14.724 0.634724 1 1.3098e-05 
19092 2 20.488 12.9685 2.11493 1 6.01877e-06 
19093 2 21.4532 15.2639 2.11423 1 3.17642e-06 
19095 2 22.7377 13.3745 1.12905 1 2.52128e-06 
164 4 -65.7798 17.2532 1.89373 5 6.1952 
168 4 -63.8518 17.7932 0.415031 1 2.00009e-16 
190 4 -63.5305 16.3083 2.38663 1 3e-16 
192 4 -64.8158 15.4984 0.415031 1 6.00009e-16 
561 4 -61.6025 16.8483 0.90793 1 6.00007e-16 
562 4 -59.3532 15.9034 1.40083 1 4.9053e-10 
1136 1 -56.1399 17.2532 1.89371 1 2.22131e-09 
1193 1 -55.1759 15.4984 0.414994 1 6.03489e-09 
1854 1 -54.2119 17.7932 0.415019 1 1.05561e-09 
1911 1 -53.8906 16.3083 2.38659 1 5.3874e-09 
1913 1 -51.9626 16.8483 0.907898 1 2.94295e-09 
2697 1 -49.7133 15.9033 1.40079 1 2.91605e-09 
3489 1 -46.5 17.2532 1.89365 1 1.91163e-09 
3493 1 -44.572 17.7931 0.414925 1 2.27838e-09 
3550 1 -45.536 15.4984 0.414951 1 2.51848e-09 
3548 1 -44.2507 16.3083 2.38652 1 1.92495e-09 
4342 1 -42.3227 16.8482 0.907789 1 2.54021e-09 
4343 1 -40.0735 15.9033 1.40064 1 2.9035e-09 
5136 1 -36.8602 17.2533 1.89349 1 2.00279e-08 
5193 1 -35.8962 15.4985 0.414735 1 1.5288e-08 
5927 1 -34.9321 17.7932 0.41474 1 1.15559e-08 
5984 1 -34.6109 16.3084 2.38634 1 2.66965e-08 
5986 1 -32.6829 16.8484 0.907619 1 1.34934e-08 
6777 1 -30.4337 15.9035 1.40051 1 2.54769e-08 
7569 1 -27.2204 17.2534 1.89357 1 1.57345e-07 
7573 1 -25.2924 17.7936 0.415121 1 3.45103e-07 
7628 1 -24.971 16.3085 2.38647 1 4.36258e-07 
7630 1 -26.2565 15.4987 0.414839 1 1.70887e-07 
8422 1 -23.0431 16.8488 0.908217 1 9.54368e-07 
8423 1 -20.7934 15.9038 1.40113 1 2.65658e-06 
9216 1 -17.5797 17.2544 1.89507 1 1.05745e-05 
9273 1 -16.6155 15.4993 0.417034 1 1.81158e-05 
10007 1 -15.653 17.7968 0.418999 1 2.85038e-05 
10064 1 -15.3291 16.3083 2.38771 1 3.09938e-05 
10066 1 -13.403 16.8513 0.913678 1 7.38905e-05 
10857 1 -11.1527 15.902 1.40911 1 0.000421072 
11649 1 -7.93876 17.2619 1.91483 1 0.00167288 
11710 1 -6.96804 15.5104 0.435493 1 0.00360753 
11653 1 -6.02938 17.821 0.444262 1 0.0136009 
11708 1 -5.67375 16.3476 2.41596 1 0.035608 
12498 1 -3.79648 16.9603 0.981271 1 0.330206 
12499 1 -1.33458 16.0737 1.45411 5 4.13328 
14736 2 0.997123 16.7109 0.65621 5 0.645077 
15237 2 2.85036 17.3169 2.15032 5 1.22186 
15236 2 4.3706 15.6372 1.14438 5 0.751933 
15889 2 6.6422 16.0682 0.144733 1 0.00915832 
15891 2 6.37952 16.2094 2.58972 1 0.0428841 
15894 2 8.60779 16.6134 1.61112 1 0.00643649 
16713 2 10.8483 17.0176 0.629667 1 0.00116551 
16715 2 12.7803 17.5576 2.10998 1 0.000194646 
17507 2 14.068 15.6684 1.12383 1 0.000149786 
17509 2 15.995 16.2078 2.60434 1 7.47717e-05 
17510 2 16.3149 16.0737 0.139988 1 7.17445e-05 
18308 2 18.2424 16.6133 1.61962 1 3.39656e-05 
18359 2 20.4905 17.0191 0.634507 1 1.53495e-05 
19147 2 23.7024 15.6697 1.1285 1 1.59963e-06 
19148 2 22.4177 17.5591 2.11373 1 4.70975e-06 
165 4 -64.8158 19.548 1.89373 1 6.00005e-16 
513 4 -62.5665 18.6031 2.38663 1 1e-16 
516 4 -62.8878 20.088 0.415031 1 6.00009e-16 
517 4 -60.6385 19.143 0.90793 1 4.00007e-16 
1133 4 -58.3892 18.1981 1.40083 1 9.87294e-10 
1853 1 -55.1759 19.548 1.89372 1 1.33043e-09 
1855 1 -53.2479 20.088 0.415033 1 4.33661e-09 
1856 1 -52.9266 18.6031 2.3866 1 2.39217e-09 
2639 1 -50.9986 19.143 0.907911 1 5.03141e-09 
2698 1 -48.7493 18.1981 1.40079 1 2.12919e-09 
3490 1 -45.536 19.5479 1.89364 1 3.21049e-09 
4281 1 -43.2867 18.603 2.38651 1 2.97251e-09 
4284 1 -43.608 20.0878 0.414918 1 3.57483e-09 
4285 1 -41.3587 19.143 0.907778 1 7.18084e-09 
5133 1 -39.1094 18.1981 1.40063 1 1.12333e-08 
5926 1 -35.8961 19.548 1.8935 1 1.44894e-08 
5928 1 -33.9681 20.088 0.414762 1 2.56761e-08 
5929 1 -33.6468 18.6031 2.3864 1 1.69346e-08 
6719 1 -31.7188 19.1431 0.907685 1 2.83803e-08 
6778 1 -29.4696 18.1982 1.40063 1 5.87735e-08 
7570 1 -26.2564 19.5483 1.89378 1 2.58648e-07 
8364 1 -24.3285 20.0885 0.415331 1 5.60504e-07 
8361 1 -24.007 18.6034 2.38682 1 6.57543e-07 
8365 1 -22.0793 19.144 0.908664 1 1.43775e-06 
9213 1 -19.8297 18.1994 1.40197 1 3.6179e-06 
10006 1 -16.617 19.5513 1.89673 1 1.87147e-05 
10008 1 -14.691 20.0947 0.420061 1 5.93733e-05 
10009 1 -14.3671 18.6065 2.39103 1 5.55702e-05 
10799 1 -12.4431 19.1519 0.917081 1 0.000194897 
10858 1 -10.1972 18.2045 1.41797 1 0.000940981 
11650 1 -6.99672 19.5698 1.92285 1 0.00806388 
12437 1 -4.73308 18.6944 2.43478 1 0.126751 
12440 1 -5.11137 20.1228 0.425156 1 0.115654 
12441 1 -2.90318 19.4315 1.03059 5 0.944347 
13224 1 -0.323962 18.5489 1.5478 5 4.55293 
14739 2 1.99635 19.1418 0.637036 1 0.082656 
15238 2 3.88836 19.727 2.12586 1 0.291683 
15240 2 5.28719 17.9256 1.14819 1 0.110596 
15284 2 6.25386 20.2187 1.14757 1 0.0386255 
15892 2 7.29725 18.4938 2.59829 1 0.0126165 
15941 2 7.58588 18.3548 0.156218 1 0.00938649 
15943 2 9.54929 18.9015 1.62058 1 0.0016751 
16714 2 11.8008 19.3086 0.636564 1 0.000280561 
16719 2 13.7375 19.8503 2.11283 1 7.51325e-05 
17508 2 15.0274 17.9624 1.12583 1 8.8812e-05 
17559 2 15.9871 20.2562 1.12783 1 3.18508e-05 
17514 2 16.9572 18.5026 2.60474 1 6.19641e-05 
17558 2 17.2757 18.3681 0.141245 1 3.84306e-05 
18360 2 19.205 18.9082 1.61985 1 2.65886e-05 
18363 2 21.4535 19.314 0.634589 1 1.13294e-05 
19149 2 23.3815 19.8542 2.11344 1 5.36856e-06 
148 4 -67.0651 20.4929 1.40083 5 30.976 
149 4 -66.1011 22.7877 1.40083 5 6.1952 
476 4 -63.8518 21.8428 1.89373 1 4.00005e-16 
480 4 -61.9238 22.3827 0.415031 1 1.20001e-15 
514 4 -61.6025 20.8979 2.38663 1 6e-16 
1076 4 -59.6745 21.4378 0.90793 1 1.3912e-10 
1077 1 -57.4252 20.4929 1.40083 1 1.89941e-09 
1795 1 -56.4612 22.7877 1.40083 1 1.86307e-09 
1798 1 -54.2119 21.8428 1.89373 1 2.0642e-09 
2581 1 -52.2839 22.3827 0.41502 1 2.09105e-09 
2638 1 -51.9626 20.8978 2.38661 1 3.08967e-09 
2640 1 -50.0346 21.4378 0.907894 1 1.92621e-09 
3432 1 -47.7853 20.4928 1.40077 1 3.64599e-09 
3433 1 -46.8213 22.7876 1.40075 1 2.37391e-09 
4223 1 -44.572 21.8426 1.89364 1 2.25027e-09 
4227 1 -42.644 22.3826 0.414916 1 9.50186e-09 
4282 1 -42.3227 20.8977 2.38651 1 3.49914e-09 
5076 1 -40.3947 21.4377 0.907767 1 7.83986e-09 
5077 1 -38.1454 20.4928 1.40063 1 1.22025e-08 
5868 1 -37.1813 22.7875 1.4006 1 1.46024e-08 
5871 1 -34.9321 21.8427 1.8935 1 1.60733e-08 
6661 1 -33.0041 22.3827 0.41474 1 1.74965e-08 
6718 1 -32.6828 20.8979 2.38644 1 3.24737e-08 
6720 1 -30.7548 21.4379 0.907706 1 3.72814e-08 
7512 1 -28.5056 20.4931 1.40072 1 8.92353e-08 
7513 1 -27.5417 22.7879 1.40074 1 1.22515e-07 
8303 1 -25.2926 21.8432 1.89393 1 3.82879e-07 
8307 1 -23.3648 22.3835 0.41536 1 7.77641e-07 
8362 1 -23.0433 20.8985 2.38717 1 9.96868e-07 
9156 1 -21.1157 21.4392 0.90891 1 2.33456e-06 
9157 1 -18.8664 20.4952 1.40269 1 6.42273e-06 
9948 1 -17.9035 22.7908 1.40288 1 1.12149e-05 
9951 1 -15.6549 21.8483 1.89776 1 3.60384e-05 
10741 1 -13.7296 22.3917 0.418898 1 0.000104768 
10798 1 -13.4064 20.9058 2.39374 1 0.000124388 
10800 1 -11.4844 21.4525 0.916617 1 0.000465161 
11592 1 -9.24548 20.5089 1.42103 1 0.00184789 
11593 1 -8.29682 22.8107 1.4135 1 0.00280411 
12379 1 -6.06746 21.8723 1.91425 1 0.0366634 
12383 1 -4.19191 22.3894 0.371545 1 0.364277 
12438 1 -3.81486 21.0841 2.44593 1 0.295356 
13172 1 -1.98513 21.8699 0.999183 5 1.76549 
14737 2 0.685385 20.969 1.57258 5 0.328323 
14781 2 2.96802 21.5373 0.623845 1 0.0958259 
15285 2 4.90835 22.0666 2.11691 1 0.0941641 
15288 2 7.23673 22.5172 1.14719 1 0.0167748 
15942 2 8.55148 20.6458 0.162032 1 0.00640579 
15944 2 8.24054 20.7806 2.60671 1 0.00306589 
15947 2 10.5038 21.1917 1.62713 1 0.000582628 
15987 2 9.52583 22.9407 0.162558 1 0.00377971 
16759 2 12.7605 21.6012 0.640779 1 0.000155406 
16761 2 14.6972 22.1438 2.11509 1 4.09834e-05 
17560 2 16.9485 22.5505 1.12933 1 1.81687e-05 
17561 2 17.9187 20.7972 2.60545 1 3.3308e-05 
17562 2 18.2369 20.6624 0.142475 1 1.31334e-05 
18361 2 20.1674 21.203 1.62029 1 1.33206e-05 
18405 2 22.4163 21.6088 0.634837 1 5.40331e-06 
448 4 -65.1371 25.0824 1.40083 1 1.10001e-15 
477 4 -62.8878 24.1375 1.89373 1 5.00005e-16 
1018 4 -60.6385 23.1926 2.38663 1 5.00001e-16 
1021 4 -60.9598 24.6775 0.415031 1 6.00009e-16 
1019 4 -59.6745 25.4874 2.38663 1 1.64752e-11 
1022 4 -58.7105 23.7326 0.90793 1 3.4252e-10 
1739 1 -55.4972 25.0824 1.40084 1 2.07007e-09 
2580 1 -53.2479 24.1375 1.89372 1 1.92575e-09 
2582 1 -51.3199 24.6774 0.415008 1 2.24675e-09 
2583 1 -50.9986 23.1926 2.3866 1 2.29788e-09 
3373 1 -50.0345 25.4873 2.38658 1 5.01105e-09 
3374 1 -49.0706 23.7325 0.907874 1 6.19919e-09 
4166 1 -45.8572 25.0823 1.40075 1 6.93268e-09 
4224 1 -43.6079 24.1374 1.89363 1 6.78858e-09 
5015 1 -41.3586 23.1925 2.3865 1 8.76895e-09 
5016 1 -40.3947 25.4872 2.38644 1 6.56371e-09 
5018 1 -41.68 24.6773 0.414877 1 6.88568e-09 
5019 1 -39.4307 23.7324 0.907729 1 6.64351e-09 
5812 1 -36.2174 25.0823 1.40054 1 1.70029e-08 
6660 1 -33.9681 24.1375 1.89345 1 1.16646e-08 
6662 1 -32.0401 24.6774 0.414669 1 1.93295e-08 
6663 1 -31.7189 23.1926 2.38642 1 3.00639e-08 
7453 1 -30.755 25.4874 2.38635 1 2.57258e-08 
7454 1 -29.7909 23.7326 0.907662 1 3.89364e-08 
8246 1 -26.578 25.0827 1.40066 1 1.33293e-07 
8304 1 -24.3289 24.1381 1.89392 1 4.66517e-07 
9095 1 -22.0798 23.1936 2.38738 1 1.52379e-06 
9098 1 -22.4012 24.6782 0.415117 1 9.16689e-07 
9096 1 -21.1165 25.4886 2.38727 1 2.04044e-06 
9099 1 -20.1523 23.7342 0.908756 1 3.42221e-06 
9892 1 -16.9409 25.0857 1.40218 1 1.70605e-05 
10740 1 -14.6931 24.1445 1.89726 1 5.84032e-05 
10742 1 -12.7682 24.687 0.414693 1 0.000133674 
10743 1 -12.4464 23.2049 2.39406 1 0.000254102 
11534 1 -10.526 23.751 0.909941 1 0.000849786 
12322 1 -7.34703 25.1043 1.39589 1 0.00404504 
12380 1 -5.14658 24.1544 1.88555 1 0.0999249 
13111 1 -2.9149 23.4586 2.40112 1 0.559769 
13114 1 -3.26188 24.6185 0.292789 5 1.17826 
13170 1 -1.05284 24.3767 1.02725 5 4.54026 
14446 2 0.91446 25.2581 0.0718183 5 0.77236 
14782 2 1.67308 23.421 1.59752 5 0.317005 
14785 2 3.98551 23.8585 0.631029 1 0.0270423 
15286 2 5.92156 24.3881 2.11838 1 0.0398136 
15324 2 8.22482 24.8183 1.14445 1 0.00784751 
15945 2 9.20185 23.0726 2.61155 1 0.00125062 
15988 2 10.5027 25.2385 0.15879 1 0.00197777 
15990 2 10.1727 25.3695 2.61276 1 0.000784211 
15989 2 11.4673 23.4854 1.62953 1 0.000449077 
16760 2 13.7251 23.8958 0.642152 1 0.000177369 
16765 2 15.6596 24.4383 2.11636 1 5.37754e-05 
17566 2 18.8806 23.0918 2.60624 1 1.33391e-05 
17603 2 17.9117 24.8453 1.13021 1 2.49289e-05 
17602 2 19.1993 22.957 0.143393 1 8.61311e-06 
17605 2 19.8433 25.3867 2.60701 1 6.86148e-06 
17606 2 20.163 25.2518 0.143969 1 1.23045e-05 
18406 2 21.13 23.4977 1.62082 1 5.18654e-06 
18409 2 23.3795 23.9036 0.635211 1 2.07225e-06 
142 4 -67.3864 26.0273 0.90793 5 30.976 
449 4 -64.1731 27.3772 1.40083 1 8.00008e-16 
969 4 -61.9238 26.4323 1.89373 1 1.2e-15 
973 4 -59.9958 26.9722 0.415031 1 5.00009e-16 
1677 4 -58.7105 27.7821 2.38663 1 2.15544e-10 
1738 4 -57.7465 26.0273 0.90793 1 8.6914e-10 
2522 1 -54.5332 27.3772 1.40084 1 4.02578e-09 
2525 1 -52.2839 26.4323 1.89372 1 2.83537e-09 
3316 1 -50.3559 26.9722 0.415003 1 3.94251e-09 
3318 1 -49.0705 27.7821 2.38656 1 2.58725e-09 
3375 1 -48.1066 26.0272 0.907872 1 5.25151e-09 
4167 1 -44.8933 27.3771 1.40072 1 4.06651e-09 
4957 1 -42.644 26.4321 1.89359 1 4.37255e-09 
4961 1 -40.716 26.972 0.414832 1 8.4256e-09 
5750 1 -39.4307 27.782 2.38639 1 7.36011e-09 
5811 1 -38.4667 26.0272 0.907678 1 7.7555e-09 
6602 1 -35.2535 27.377 1.40047 1 2.03842e-08 
6605 1 -33.0042 26.4322 1.89338 1 1.44421e-08 
7396 1 -31.0762 26.9722 0.414576 1 3.31285e-08 
7398 1 -29.7912 27.7822 2.38625 1 2.50429e-08 
7455 1 -28.8271 26.0274 0.907565 1 4.5363e-08 
8247 1 -25.6143 27.3775 1.40049 1 1.325e-07 
9037 1 -23.3653 26.4329 1.89374 1 5.02028e-07 
9041 1 -21.4377 26.9728 0.414643 1 1.11057e-06 
9830 1 -20.1531 27.7832 2.38678 1 3.12446e-06 
9891 1 -19.1891 26.0287 0.908116 1 4.56148e-06 
10682 1 -15.9779 27.3797 1.40036 1 2.74297e-05 
10685 1 -13.7308 26.4393 1.89437 1 8.25049e-05 
11476 1 -11.8052 26.9801 0.407815 1 0.000228067 
11533 1 -11.4861 25.5019 2.39023 1 0.000447495 
11478 1 -10.5222 27.7956 2.38152 1 0.00104204 
11535 1 -9.56523 26.0456 0.897335 1 0.00162972 
12323 1 -6.3936 27.3851 1.37503 1 0.033499 
13053 1 -4.23745 26.4109 1.84333 5 0.596275 
13057 1 -2.25334 26.7706 0.154747 5 4.53914 
13112 1 -2.04965 25.9024 2.36936 5 5.07861 
13652 1 -0.22092 27.11 1.24461 5 4.70987 
14476 2 1.89536 27.5685 0.112067 1 0.203791 
14783 2 2.73859 25.742 1.62603 1 0.0589402 
14820 2 5.00688 26.1667 0.628837 1 0.0164863 
15325 2 6.93244 26.7023 2.11826 1 0.016116 
15328 2 9.21218 27.1215 1.13924 1 0.00337472 
15991 2 11.1465 27.6687 2.61271 1 0.000627176 
15993 2 12.4356 25.7819 1.62905 1 0.000358905 
16025 2 11.4787 27.5377 0.152974 1 0.000878441 
16798 2 14.6925 26.1918 0.641668 1 0.000160942 
16800 2 16.624 26.7336 2.11691 1 6.4162e-05 
17604 2 18.8763 27.1405 1.13061 1 3.00415e-05 
17610 2 20.8068 27.6817 2.6077 1 7.4978e-06 
17638 2 21.1275 27.547 0.144274 1 1.44801e-05 
18407 2 22.0932 25.7926 1.6214 1 3.0722e-06 
428 4 -67.3864 30.0769 2.38663 5 37.1712 
429 4 -66.4224 28.3221 0.90793 5 12.3904 
929 4 -63.2091 29.6719 1.40083 1 6.0001e-16 
970 4 -60.9598 28.727 1.89373 1 8.00004e-16 
1678 4 -57.7465 30.0769 2.38663 1 9.68939e-10 
1680 4 -59.0318 29.267 0.415031 1 9.36018e-11 
1681 1 -56.7825 28.3221 0.907935 1 8.24486e-10 
2466 1 -53.5692 29.6719 1.40083 1 2.54151e-09 
3315 1 -51.3199 28.727 1.8937 1 1.90274e-09 
3317 1 -49.3919 29.267 0.414994 1 3.76462e-09 
4107 1 -48.1066 30.0769 2.38655 1 4.54423e-09 
4108 1 -47.1426 28.322 0.90786 1 1.83189e-09 
4900 1 -43.9293 29.6718 1.4007 1 1.94888e-09 
4958 1 -41.68 28.7269 1.89354 1 5.02118e-09 
5753 1 -39.752 29.2668 0.414789 1 7.36421e-09 
5751 1 -38.4668 30.0768 2.38633 1 1.20511e-08 
5754 1 -37.5027 28.3219 0.907613 1 1.82496e-08 
6546 1 -34.2896 29.6718 1.4004 1 3.27351e-08 
7395 1 -32.0404 28.727 1.89329 1 2.42859e-08 
7397 1 -30.1124 29.267 0.414463 1 5.36042e-08 
8187 1 -28.8274 30.077 2.38614 1 4.78092e-08 
8188 1 -27.8633 28.3222 0.907417 1 4.72949e-08 
8980 1 -24.6506 29.6722 1.40026 1 2.7638e-07 
9038 1 -22.4018 28.7276 1.89338 1 8.4975e-07 
9831 1 -19.1891 30.0775 2.38591 1 6.16189e-06 
9833 1 -20.4741 29.2673 0.414106 1 2.41671e-06 
9834 1 -18.2258 28.3228 0.907068 1 8.24347e-06 
10626 1 -15.0129 29.6725 1.39766 1 6.1671e-05 
11475 1 -12.7654 28.732 1.88899 1 0.000193706 
11477 1 -10.8346 29.271 0.400538 1 0.000884303 
12263 1 -9.54149 30.0829 2.37039 1 0.00197306 
12264 1 -8.59498 28.336 0.882499 1 0.00680623 
12996 1 -5.34502 29.6211 1.3883 1 0.0776966 
13054 1 -2.97962 28.5068 1.90651 5 4.52647 
13653 1 -1.2953 29.0185 0.207318 5 5.50627 
14477 2 0.744804 29.4316 1.22816 5 4.64258 
14479 2 2.62493 29.9676 2.63788 1 0.176568 