ITEM: TIMESTEP
0
ITEM: NUMBER OF ATOMS
25896
ITEM: BOX BOUNDS ss pp pp
-70.7874 117.721
0 31.68
0 47.2258
ITEM: ATOMS id type x y z c_cna c_csd 
2 4 -70.2626 1.68072 2.08321 5 24.7808 
35 4 -68.426 2.26739 0.50902 1 1.402e-15 
54 4 -66.0648 2.26739 1.29612 1 6.00802e-16 
57 4 -64.4906 0.507388 0.50902 1 1.4018e-15 
211 4 -63.7035 2.26739 2.08321 1 7.99601e-16 
252 4 -62.1293 0.507388 1.29612 1 4.99105e-08 
254 1 -59.768 0.507554 2.08321 1 2.48954e-08 
539 1 -57.9314 1.09445 0.509009 1 7.12645e-09 
595 1 -55.5702 1.09479 1.29609 1 4.95211e-09 
998 1 -53.2089 1.09518 2.08316 1 3.41853e-10 
1002 1 -51.3723 1.68214 0.508943 1 1.73314e-09 
1569 1 -49.011 1.68254 1.296 1 8.44237e-10 
1571 1 -46.6498 1.68295 2.08306 1 4.73254e-09 
2164 1 -44.8132 2.26993 0.50883 1 6.13205e-09 
2222 1 -42.4519 2.27036 1.29588 1 3.17559e-09 
2225 1 -40.8776 0.510661 0.50874 1 3.8334e-09 
2822 1 -40.0905 2.2708 2.08291 1 1.6271e-08 
2882 1 -38.5163 0.511148 1.29576 1 7.59884e-09 
2884 1 -36.155 0.511689 2.08279 1 2.42145e-09 
3484 1 -34.3184 1.09876 0.50854 1 1.05292e-08 
3541 1 -31.9571 1.09924 1.2956 1 1.72369e-09 
4142 1 -29.5957 1.09969 2.08266 1 6.12736e-09 
4146 1 -27.7592 1.68668 0.508429 1 5.37746e-09 
4803 1 -25.3979 1.68711 1.29554 1 1.89716e-08 
4805 1 -23.0366 1.68756 2.08265 1 5.64537e-08 
5404 1 -21.2001 2.27463 0.508453 1 2.16937e-07 
5462 1 -18.839 2.27506 1.29558 1 8.45612e-07 
5465 1 -17.2649 0.515338 0.508528 1 1.47594e-06 
6062 1 -16.4777 2.27531 2.08268 1 2.61344e-06 
6122 1 -14.9039 0.515451 1.29568 1 6.12626e-06 
6124 1 -12.5429 0.514967 2.08249 1 3.27462e-05 
6724 1 -10.7057 1.10196 0.509796 1 0.000213764 
6781 1 -8.33912 1.09841 1.29699 1 0.00204035 
7382 1 -5.96116 1.0874 2.08283 1 0.0189244 
7386 1 -4.16873 1.68773 0.51159 1 0.0305997 
8042 1 -1.8172 1.67974 1.26495 5 1.86121 
9697 2 0.468884 1.71293 1.88185 5 9.5384 
9729 2 2.72919 0.994295 1.27434 1 0.161409 
9731 2 5.14067 0.398788 0.811038 1 0.0135574 
9836 2 5.93655 2.16922 2.37666 1 0.00416898 
11010 2 6.73474 2.14446 0.0249348 1 0.00293914 
9838 2 8.3096 1.57389 1.85113 1 0.000709618 
10067 2 10.674 0.982215 1.32297 1 0.000114254 
10069 2 13.0362 0.39435 0.797145 1 1.6424e-05 
10426 2 13.8234 2.15573 2.37074 1 1.17648e-05 
12090 2 14.6104 2.15406 0.00977994 1 4.85106e-06 
10428 2 16.1849 1.56838 1.84627 1 1.85561e-06 
10893 2 18.5462 0.981705 1.3217 1 2.70173e-07 
10895 2 20.9075 0.395249 0.797075 1 4.38062e-08 
11415 2 21.6946 2.15535 2.37132 1 4.17615e-08 
13170 2 22.4817 2.15541 0.0100277 1 3.46404e-08 
34 4 -70.0002 4.02739 1.29612 5 18.5856 
37 4 -67.6389 4.02739 2.08321 1 8.00001e-16 
182 4 -65.8024 4.61405 0.50902 1 1.0024e-15 
212 4 -63.4411 4.61405 1.29612 1 1.0012e-15 
215 4 -61.8669 2.85405 0.50902 1 7.29529e-08 
486 4 -61.0798 4.61405 2.08321 1 2.08606e-07 
490 1 -59.2433 5.20096 0.509025 1 7.25428e-09 
538 1 -59.5056 2.85425 1.29611 1 1.73827e-08 
541 1 -57.1443 2.85456 2.08321 1 8.66216e-09 
939 1 -56.882 5.20127 1.29611 1 4.50011e-09 
940 1 -55.3078 3.44151 0.508993 1 3.17017e-09 
942 1 -54.5207 5.20164 2.08317 1 1.17403e-09 
999 1 -52.9465 3.44188 1.29606 1 1.13818e-09 
1508 1 -50.5852 3.44228 2.08312 1 1.1349e-09 
1512 1 -48.7487 4.02925 0.508906 1 2.19008e-09 
2163 1 -46.3874 4.02966 1.29596 1 1.2561e-09 
2166 1 -44.0261 4.03006 2.08301 1 3.85572e-09 
2764 1 -42.1895 4.61709 0.508772 1 3.95916e-09 
2823 1 -39.8282 4.61753 1.29581 1 5.51111e-09 
2826 1 -38.2539 2.85788 0.508673 1 3.01448e-09 
3422 1 -37.4668 4.61804 2.08285 1 5.41802e-09 
3426 1 -35.6302 5.20513 0.5086 1 2.31335e-09 
3483 1 -35.8926 2.8584 1.2957 1 3.15466e-09 
3486 1 -33.5313 2.85893 2.08273 1 1.03817e-08 
4083 1 -33.2689 5.20564 1.29562 1 5.18486e-09 
4084 1 -31.6947 3.44595 0.508499 1 4.02957e-09 
4086 1 -30.9076 5.20611 2.08267 1 3.77321e-09 
4143 1 -29.3334 3.4464 1.29555 1 5.55863e-09 
4742 1 -26.9721 3.44683 2.08262 1 1.85796e-08 
4746 1 -25.1355 4.03384 0.508441 1 2.52557e-08 
5403 1 -22.7742 4.03431 1.29555 1 5.94237e-08 
5406 1 -20.4129 4.03478 2.08263 1 2.19551e-07 
6004 1 -18.5763 4.62189 0.508536 1 4.73739e-07 
6063 1 -16.2147 4.62225 1.29567 1 2.34023e-06 
6066 1 -14.6413 2.86253 0.508863 1 7.28589e-06 
6662 1 -13.8523 4.62223 2.08252 1 1.53969e-05 
6723 1 -12.2791 2.86225 1.29592 1 4.51846e-05 
6666 1 -12.0159 5.21029 0.509083 1 3.86311e-05 
6726 1 -9.91431 2.86061 2.08189 1 0.000394642 
7323 1 -9.65117 5.21053 1.29543 1 0.000174236 
7324 1 -8.0831 3.45226 0.509887 1 0.00076638 
7326 1 -7.28222 5.21073 2.07967 1 0.00120933 
7383 1 -5.71806 3.45192 1.2931 1 0.00434896 
7982 1 -3.36586 3.45075 2.07804 1 0.0477077 
7986 1 -1.46279 4.02843 0.544618 5 7.48512 
9723 2 1.9427 3.39056 1.01294 5 5.2894 
9724 2 2.76433 5.14102 2.61852 5 1.89229 
9727 2 3.58699 5.09494 0.261387 1 0.0423649 
9730 2 4.35557 2.74553 0.548124 1 0.0226384 
9827 2 5.1447 4.52397 2.1044 1 0.00822262 
9837 2 7.51897 3.92022 1.58667 1 0.001133 
10061 2 9.88527 3.3282 1.06014 1 0.000167136 
10065 2 11.4617 5.08582 0.271992 1 4.80022e-05 
10068 2 12.2485 2.74044 0.534632 1 2.8426e-05 
10417 2 13.0367 4.50235 2.10806 1 2.19987e-05 
10427 2 15.3981 3.91486 1.58381 1 4.10379e-06 
10887 2 17.7593 3.32821 1.05929 1 8.1833e-07 
10891 2 19.3335 5.08835 0.272265 1 3.73638e-07 
10894 2 20.1205 2.74179 0.534673 1 1.73583e-07 
11406 2 20.9075 4.50195 2.10893 1 7.17071e-08 
11416 2 23.2688 3.91551 1.58427 1 1.46765e-08 
26 4 -69.7379 6.37405 0.50902 5 18.5856 
181 4 -67.3766 6.37405 1.29612 1 1.0012e-15 
184 4 -65.0153 6.37405 2.08321 1 6.00001e-16 
447 4 -63.1787 6.96072 0.50902 1 4.13823e-09 
487 1 -60.8175 6.96078 1.29612 1 8.12247e-08 
879 1 -58.4562 6.96106 2.08321 1 6.70539e-09 
883 1 -56.6196 7.54798 0.508997 1 5.23524e-09 
1449 1 -54.2583 7.54835 1.29606 1 2.68515e-09 
1450 1 -52.6842 5.7886 0.508951 1 1.2735e-09 
1452 1 -51.8971 7.54873 2.08314 1 4.31661e-09 
1509 1 -50.3229 5.78899 1.29602 1 2.26767e-09 
2102 1 -47.9616 5.78938 2.08308 1 1.03071e-09 
2106 1 -46.125 6.37637 0.50886 1 1.60151e-09 
2763 1 -43.7637 6.37678 1.29591 1 5.31558e-09 
2766 1 -41.4024 6.37722 2.08294 1 4.03398e-09 
3364 1 -39.5658 6.96426 0.508711 1 1.099e-08 
3423 1 -37.2044 6.96477 1.29574 1 6.64549e-09 
4022 1 -34.8431 6.96531 2.08276 1 4.9846e-09 
4026 1 -33.0065 7.55236 0.508517 1 4.56729e-09 
4683 1 -30.6452 7.55283 1.29557 1 2.30771e-09 
4684 1 -29.071 5.79312 0.508439 1 4.44557e-09 
4686 1 -28.2839 7.55326 2.08263 1 3.78407e-09 
4743 1 -26.7097 5.79355 1.29552 1 9.68646e-09 
5342 1 -24.3483 5.79398 2.08263 1 1.5187e-08 
5346 1 -22.5117 6.38105 0.508464 1 6.43185e-08 
6003 1 -20.1503 6.38154 1.29556 1 3.03793e-07 
6006 1 -17.7887 6.3819 2.08262 1 1.41401e-06 
6604 1 -15.9521 6.96912 0.508589 1 3.70674e-06 
6663 1 -13.5898 6.96933 1.29565 1 1.45507e-05 
7262 1 -11.2261 6.96907 2.08221 1 7.191e-05 
7266 1 -9.39083 7.55519 0.506 1 0.000419485 
7923 1 -7.02874 7.5502 1.28606 1 0.00559252 
7924 1 -5.43978 5.78973 0.496792 1 0.00796499 
7926 1 -4.68194 7.54452 2.05404 1 0.106863 
7983 1 -3.05133 5.78323 1.2497 1 0.170293 
9711 2 -0.730923 5.93102 2.03411 5 6.76745 
9716 2 1.97337 7.40948 2.37513 5 2.99661 
9726 2 1.19039 5.67913 0.717869 5 6.39275 
9830 2 4.3496 6.88084 1.81989 1 0.0280221 
9832 2 6.73031 6.26911 1.3175 1 0.00211706 
10053 2 9.88796 7.43916 2.36908 1 0.000212816 
10064 2 9.09781 5.67321 0.796045 1 0.000288498 
11530 2 10.6757 7.43088 0.0104246 1 0.000129377 
10420 2 12.2501 6.84894 1.84572 1 4.42211e-05 
10422 2 14.6114 6.26136 1.32148 1 9.35759e-06 
10879 2 17.7591 7.43517 2.37118 1 6.67526e-07 
10890 2 16.9724 5.67474 0.796902 1 1.83132e-06 
11409 2 20.1204 6.84857 1.84654 1 1.02648e-07 
12610 2 18.5463 7.43495 0.00986138 1 3.35835e-07 
11411 2 22.4816 6.26211 1.32188 1 2.29219e-08 
159 4 -68.9508 8.13405 2.08321 5 6.1952 
160 4 -68.6884 10.4807 1.29612 5 6.1952 
163 4 -67.1142 8.72072 0.50902 1 9.02402e-16 
414 4 -66.3271 10.4807 2.08321 1 1.00003e-16 
446 4 -64.7529 8.72072 1.29612 1 7.01201e-16 
449 4 -62.3916 8.72072 2.08321 1 3.41309e-08 
830 1 -60.5551 9.30748 0.509021 1 5.72637e-08 
880 1 -58.1938 9.30776 1.2961 1 6.0906e-09 
1388 1 -55.8325 9.30809 2.08318 1 4.39517e-09 
1392 1 -53.996 9.89505 0.508969 1 1.34765e-09 
2043 1 -51.6347 9.89543 1.29604 1 2.51872e-09 
2044 1 -50.0605 8.1357 0.508928 1 4.72301e-09 
2046 1 -49.2734 9.89583 2.0831 1 1.30133e-09 
2103 1 -47.6992 8.13611 1.29598 1 2.1058e-09 
2644 1 -47.4368 10.4828 0.508876 1 2.78475e-09 
2702 1 -45.3379 8.1365 2.08303 1 2.21376e-09 
2703 1 -45.0755 10.4832 1.29593 1 3.34111e-09 
2706 1 -43.5013 8.7235 0.50882 1 1.0002e-08 
3302 1 -42.7142 10.4836 2.08298 1 3.04067e-09 
3363 1 -41.14 8.72394 1.29585 1 4.57733e-09 
3366 1 -38.7786 8.72442 2.08287 1 1.37534e-08 
3964 1 -36.9421 9.31151 0.508625 1 4.28103e-09 
4023 1 -34.5807 9.31204 1.29564 1 1.36981e-08 
4622 1 -32.2194 9.31253 2.08269 1 4.1332e-09 
4626 1 -30.3828 9.89955 0.508473 1 4.443e-09 
5283 1 -28.0215 9.89997 1.29554 1 3.82625e-09 
5284 1 -26.4473 8.14025 0.508422 1 1.25778e-08 
5286 1 -25.6602 9.90039 2.08264 1 1.25281e-08 
5343 1 -24.0859 8.14071 1.29554 1 2.8379e-08 
5884 1 -23.8237 10.4874 0.508446 1 2.4369e-08 
5942 1 -21.7246 8.14118 2.08266 1 1.24721e-07 
5943 1 -21.4624 10.4879 1.29557 1 8.28676e-08 
5946 1 -19.888 8.72823 0.508475 1 1.96565e-07 
6542 1 -19.1011 10.4883 2.08271 1 2.6977e-07 
6603 1 -17.5266 8.72862 1.29563 1 7.21131e-07 
6606 1 -15.1649 8.72874 2.08276 1 2.20748e-06 
7204 1 -13.3294 9.31571 0.508432 1 1.02728e-05 
7263 1 -10.9682 9.31469 1.29484 1 9.64312e-05 
7862 1 -8.60873 9.31178 2.07989 1 0.00120932 
7866 1 -6.75804 9.89502 0.513291 1 0.0109093 
8495 1 -4.36087 9.86948 1.30234 1 0.114297 
8496 1 -2.63559 8.09053 0.501109 5 1.33743 
8498 1 -1.91813 9.83891 2.10041 5 4.54265 
8965 1 -0.312741 10.4574 0.442026 5 8.509 
9714 2 0.291421 8.03414 0.67181 5 2.63232 
9715 2 1.18833 9.85638 2.16818 5 1.64986 
9813 2 3.50326 9.21148 1.54722 1 0.121035 
9831 2 5.94105 8.6168 1.06498 1 0.0106455 
10054 2 7.52078 10.3642 0.279469 1 0.0010796 
10051 2 8.31252 8.0188 0.536576 1 0.000709972 
10052 2 9.09767 9.78763 2.10855 1 0.000425875 
10403 2 11.4618 9.19581 1.58383 1 6.6343e-05 
10421 2 13.8238 8.60799 1.0592 1 1.065e-05 
10880 2 15.3977 10.3678 0.272189 1 2.79973e-06 
10877 2 16.1851 8.02132 0.53452 1 1.77577e-06 
10878 2 16.9719 9.78182 2.10877 1 1.25023e-06 
11392 2 19.3332 9.19516 1.58414 1 2.09641e-07 
11410 2 21.6945 8.6087 1.05949 1 4.67773e-08 
11943 2 23.2688 10.3688 0.272433 1 9.82288e-09 
152 4 -70.2626 12.2407 2.08321 5 24.7808 
395 4 -68.426 12.8274 0.50902 1 1.4024e-15 
415 4 -66.0648 12.8274 1.29612 1 6.01201e-16 
418 4 -64.4906 11.0674 0.50902 1 1.4028e-15 
787 4 -63.7035 12.8274 2.08321 1 8e-16 
829 4 -62.1293 11.0674 1.29612 1 4.99105e-08 
832 1 -59.768 11.0676 2.08321 1 2.48953e-08 
1331 1 -57.9314 11.6545 0.509009 1 7.12644e-09 
1389 1 -55.5702 11.6548 1.29609 1 4.9521e-09 
1982 1 -53.2089 11.6552 2.08316 1 3.41852e-10 
1986 1 -51.3723 12.2421 0.508943 1 1.73313e-09 
2643 1 -49.011 12.2425 1.296 1 8.44235e-10 
2646 1 -46.6498 12.2429 2.08306 1 4.73255e-09 
3244 1 -44.8132 12.8299 0.50883 1 6.13206e-09 
3303 1 -42.4519 12.8304 1.29588 1 3.1756e-09 
3306 1 -40.8776 11.0707 0.50874 1 3.83339e-09 
3902 1 -40.0905 12.8308 2.08291 1 1.6271e-08 
3963 1 -38.5163 11.0711 1.29576 1 7.59883e-09 
3966 1 -36.155 11.0717 2.08279 1 2.42145e-09 
4564 1 -34.3184 11.6588 0.50854 1 1.05292e-08 
4623 1 -31.9571 11.6592 1.2956 1 1.72368e-09 
5222 1 -29.5957 11.6597 2.08266 1 6.12738e-09 
5226 1 -27.7592 12.2467 0.508429 1 5.37746e-09 
5883 1 -25.3979 12.2471 1.29554 1 1.89716e-08 
5886 1 -23.0366 12.2476 2.08265 1 5.64537e-08 
6484 1 -21.2001 12.8346 0.508453 1 2.16937e-07 
6543 1 -18.839 12.8351 1.29558 1 8.45612e-07 
6546 1 -17.2649 11.0753 0.508528 1 1.47594e-06 
7142 1 -16.4777 12.8353 2.08268 1 2.61344e-06 
7203 1 -14.9039 11.0755 1.29568 1 6.12626e-06 
7206 1 -12.5429 11.075 2.08249 1 3.27462e-05 
7804 1 -10.7057 11.662 0.509796 1 0.000213764 
7863 1 -8.33912 11.6584 1.29699 1 0.00204035 
8434 1 -5.96116 11.6474 2.08283 1 0.0189244 
8438 1 -4.16873 12.2477 0.51159 1 0.0305997 
8964 1 -1.8172 12.2397 1.26495 5 1.86121 
9703 2 0.468884 12.2729 1.88185 5 9.5384 
9816 2 2.72919 11.5543 1.27434 1 0.161409 
9818 2 5.14067 10.9588 0.811038 1 0.0135574 
10034 2 5.93655 12.7292 2.37666 1 0.00416898 
11463 2 6.73474 12.7045 0.0249348 1 0.00293914 
10036 2 8.3096 12.1339 1.85113 1 0.000709618 
10406 2 10.674 11.5422 1.32297 1 0.000114254 
10408 2 13.0362 10.9543 0.797145 1 1.6424e-05 
10860 2 13.8234 12.7157 2.37074 1 1.17648e-05 
12543 2 14.6104 12.7141 0.00977994 1 4.85106e-06 
10862 2 16.1849 12.1284 1.84627 1 1.85561e-06 
11395 2 18.5462 11.5417 1.3217 1 2.70173e-07 
11397 2 20.9075 10.9552 0.797075 1 4.38062e-08 
11923 2 21.6946 12.7153 2.37132 1 4.17615e-08 
13623 2 22.4817 12.7154 0.0100277 1 3.46404e-08 
394 4 -70.0002 14.5874 1.29612 5 18.5856 
397 4 -67.6389 14.5874 2.08321 1 8.00001e-16 
758 4 -65.8024 15.1741 0.50902 1 1.0024e-15 
788 4 -63.4411 15.1741 1.29612 1 1.0012e-15 
791 4 -61.8669 13.4141 0.50902 1 7.29529e-08 
1278 4 -61.0798 15.1741 2.08321 1 2.08606e-07 
1282 1 -59.2433 15.761 0.509025 1 7.25428e-09 
1330 1 -59.5056 13.4143 1.29611 1 1.73827e-08 
1333 1 -57.1443 13.4146 2.08321 1 8.66219e-09 
1923 1 -56.882 15.7613 1.29611 1 4.50012e-09 
1924 1 -55.3078 14.0015 0.508993 1 3.17017e-09 
1926 1 -54.5207 15.7616 2.08317 1 1.17403e-09 
1983 1 -52.9465 14.0019 1.29606 1 1.13818e-09 
2582 1 -50.5852 14.0023 2.08312 1 1.1349e-09 
2586 1 -48.7487 14.5892 0.508906 1 2.19009e-09 
3243 1 -46.3874 14.5897 1.29596 1 1.25611e-09 
3246 1 -44.0261 14.5901 2.08301 1 3.85573e-09 
3844 1 -42.1895 15.1771 0.508772 1 3.95915e-09 
3903 1 -39.8282 15.1775 1.29581 1 5.51112e-09 
3906 1 -38.2539 13.4179 0.508673 1 3.01448e-09 
4502 1 -37.4668 15.178 2.08285 1 5.41803e-09 
4506 1 -35.6302 15.7651 0.5086 1 2.31336e-09 
4563 1 -35.8926 13.4184 1.2957 1 3.15466e-09 
4566 1 -33.5313 13.4189 2.08273 1 1.03817e-08 
5163 1 -33.2689 15.7656 1.29562 1 5.18489e-09 
5164 1 -31.6947 14.006 0.508499 1 4.02956e-09 
5166 1 -30.9076 15.7661 2.08267 1 3.77321e-09 
5223 1 -29.3334 14.0064 1.29555 1 5.55863e-09 
5822 1 -26.9721 14.0068 2.08262 1 1.85796e-08 
5826 1 -25.1355 14.5938 0.508441 1 2.52557e-08 
6483 1 -22.7742 14.5943 1.29555 1 5.94237e-08 
6486 1 -20.4129 14.5948 2.08263 1 2.19551e-07 
7084 1 -18.5763 15.1819 0.508536 1 4.73739e-07 
7143 1 -16.2147 15.1823 1.29567 1 2.34023e-06 
7146 1 -14.6413 13.4225 0.508863 1 7.28589e-06 
7742 1 -13.8523 15.1822 2.08252 1 1.53969e-05 
7803 1 -12.2791 13.4222 1.29592 1 4.51846e-05 
7746 1 -12.0159 15.7703 0.509083 1 3.86311e-05 
7806 1 -9.91431 13.4206 2.08189 1 0.000394642 
8375 1 -9.65117 15.7705 1.29543 1 0.000174236 
8376 1 -8.0831 14.0123 0.509887 1 0.00076638 
8378 1 -7.28222 15.7707 2.07967 1 0.00120933 
8435 1 -5.71806 14.0119 1.2931 1 0.00434896 
8904 1 -3.36586 14.0107 2.07804 1 0.0477077 
8908 1 -1.46279 14.5884 0.544618 5 7.48512 
9792 2 1.9427 13.9506 1.01294 5 5.2894 
9793 2 2.76433 15.701 2.61852 5 1.89229 
9796 2 3.58699 15.6549 0.261387 1 0.0423649 
9817 2 4.35557 13.3055 0.548124 1 0.0226384 
10007 2 5.1447 15.084 2.1044 1 0.00822262 
10035 2 7.51897 14.4802 1.58667 1 0.001133 
10382 2 9.88527 13.8882 1.06014 1 0.000167136 
10386 2 11.4617 15.6458 0.271992 1 4.80022e-05 
10407 2 12.2485 13.3004 0.534632 1 2.8426e-05 
10833 2 13.0367 15.0624 2.10806 1 2.19987e-05 
10861 2 15.3981 14.4749 1.58381 1 4.10379e-06 
11371 2 17.7593 13.8882 1.05929 1 8.1833e-07 
11375 2 19.3335 15.6483 0.272265 1 3.73638e-07 
11396 2 20.1205 13.3018 0.534673 1 1.73583e-07 
11896 2 20.9075 15.0619 2.10893 1 7.17072e-08 
11924 2 23.2688 14.4755 1.58427 1 1.46765e-08 
386 4 -69.7379 16.9341 0.50902 5 18.5856 
757 4 -67.3766 16.9341 1.29612 1 1.0012e-15 
760 4 -65.0153 16.9341 2.08321 1 6.00001e-16 
1239 4 -63.1787 17.5207 0.50902 1 4.13822e-09 
1279 1 -60.8175 17.5208 1.29612 1 8.12248e-08 
1865 1 -58.4562 17.5211 2.08321 1 6.70536e-09 
1869 1 -56.6196 18.108 0.508997 1 5.23525e-09 
2524 1 -54.2583 18.1083 1.29606 1 2.68514e-09 
2525 1 -52.6842 16.3486 0.508951 1 1.2735e-09 
2527 1 -51.8971 18.1087 2.08314 1 4.3166e-09 
2583 1 -50.3229 16.349 1.29602 1 2.26767e-09 
3182 1 -47.9616 16.3494 2.08308 1 1.03071e-09 
3186 1 -46.125 16.9364 0.50886 1 1.60151e-09 
3843 1 -43.7637 16.9368 1.29591 1 5.31558e-09 
3846 1 -41.4024 16.9372 2.08294 1 4.03396e-09 
4448 1 -39.5658 17.5243 0.508711 1 1.099e-08 
4503 1 -37.2044 17.5248 1.29574 1 6.6455e-09 
5105 1 -34.8431 17.5253 2.08276 1 4.98461e-09 
5109 1 -33.0065 18.1124 0.508517 1 4.56729e-09 
5764 1 -30.6452 18.1128 1.29557 1 2.30771e-09 
5765 1 -29.071 16.3531 0.508439 1 4.44556e-09 
5767 1 -28.2839 18.1133 2.08263 1 3.78408e-09 
5823 1 -26.7097 16.3535 1.29552 1 9.68646e-09 
6422 1 -24.3483 16.354 2.08263 1 1.5187e-08 
6426 1 -22.5117 16.9411 0.508464 1 6.43185e-08 
7083 1 -20.1503 16.9415 1.29556 1 3.03793e-07 
7086 1 -17.7887 16.9419 2.08262 1 1.41401e-06 
7688 1 -15.9521 17.5291 0.508589 1 3.70674e-06 
7743 1 -13.5898 17.5293 1.29565 1 1.45507e-05 
8317 1 -11.2261 17.5291 2.08221 1 7.191e-05 
8321 1 -9.39083 18.1152 0.506 1 0.000419485 
8846 1 -7.02874 18.1102 1.28606 1 0.00559252 
8847 1 -5.43978 16.3497 0.496792 1 0.00796499 
8849 1 -4.68194 18.1045 2.05404 1 0.106863 
8905 1 -3.05133 16.3432 1.2497 1 0.170293 
9762 2 -0.730923 16.491 2.03411 5 6.76745 
9767 2 1.97337 17.9695 2.37513 5 2.99661 
9795 2 1.19039 16.2391 0.717869 5 6.39275 
10010 2 4.3496 17.4408 1.81989 1 0.0280221 
10012 2 6.73031 16.8291 1.3175 1 0.00211706 
10356 2 9.88796 17.9992 2.36908 1 0.000212816 
10385 2 9.09781 16.2332 0.796045 1 0.000288498 
11994 2 10.6757 17.9909 0.0104246 1 0.000129377 
10836 2 12.2501 17.4089 1.84572 1 4.42211e-05 
10838 2 14.6114 16.8214 1.32148 1 9.35759e-06 
11345 2 17.7591 17.9952 2.37118 1 6.67526e-07 
11374 2 16.9724 16.2347 0.796902 1 1.83132e-06 
11899 2 20.1204 17.4086 1.84654 1 1.02648e-07 
13074 2 18.5463 17.9949 0.00986138 1 3.35835e-07 
11901 2 22.4816 16.8221 1.32188 1 2.29219e-08 
735 4 -68.9508 18.6941 2.08321 5 6.1952 
736 4 -68.6884 21.0407 1.29612 5 6.1952 
739 4 -67.1142 19.2807 0.50902 1 9.02401e-16 
1206 4 -66.3271 21.0407 2.08321 1 1.00001e-16 
1238 4 -64.7529 19.2807 1.29612 1 7.012e-16 
1241 4 -62.3916 19.2807 2.08321 1 3.41309e-08 
1820 1 -60.5551 19.8675 0.509021 1 5.72638e-08 
1866 1 -58.1938 19.8678 1.2961 1 6.09059e-09 
2473 1 -55.8325 19.8681 2.08318 1 4.39518e-09 
2477 1 -53.996 20.4551 0.508969 1 1.34765e-09 
3131 1 -51.6347 20.4554 1.29604 1 2.51874e-09 
3132 1 -50.0605 18.6957 0.508928 1 4.72301e-09 
3134 1 -49.2734 20.4558 2.0831 1 1.30133e-09 
3183 1 -47.6992 18.6961 1.29598 1 2.10581e-09 
3746 1 -47.4368 21.0428 0.508876 1 2.78475e-09 
3788 1 -45.3379 18.6965 2.08303 1 2.21376e-09 
3789 1 -45.0755 21.0432 1.29593 1 3.34111e-09 
3792 1 -43.5013 19.2835 0.50882 1 1.0002e-08 
4400 1 -42.7142 21.0436 2.08298 1 3.04067e-09 
4447 1 -41.14 19.2839 1.29585 1 4.57733e-09 
4450 1 -38.7786 19.2844 2.08287 1 1.37534e-08 
5059 1 -36.9421 19.8715 0.508625 1 4.28102e-09 
5106 1 -34.5807 19.872 1.29564 1 1.36981e-08 
5713 1 -32.2194 19.8725 2.08269 1 4.13319e-09 
5717 1 -30.3828 20.4595 0.508473 1 4.44301e-09 
6371 1 -28.0215 20.46 1.29554 1 3.82626e-09 
6372 1 -26.4473 18.7003 0.508422 1 1.25778e-08 
6374 1 -25.6602 20.4604 2.08264 1 1.25281e-08 
6423 1 -24.0859 18.7007 1.29554 1 2.8379e-08 
6986 1 -23.8237 21.0474 0.508446 1 2.4369e-08 
7028 1 -21.7246 18.7012 2.08266 1 1.24721e-07 
7029 1 -21.4624 21.0479 1.29557 1 8.28676e-08 
7032 1 -19.888 19.2882 0.508475 1 1.96565e-07 
7640 1 -19.1011 21.0483 2.08271 1 2.6977e-07 
7687 1 -17.5266 19.2886 1.29563 1 7.21131e-07 
7690 1 -15.1649 19.2887 2.08276 1 2.20748e-06 
8271 1 -13.3294 19.8757 0.508432 1 1.02728e-05 
8318 1 -10.9682 19.8747 1.29484 1 9.64312e-05 
8795 1 -8.60873 19.8718 2.07989 1 0.00120932 
8799 1 -6.75804 20.455 0.513291 1 0.0109093 
9215 1 -4.36087 20.4295 1.30234 1 0.114297 
9216 1 -2.63559 18.6505 0.501109 5 1.33743 
9218 1 -1.91813 20.3989 2.10041 5 4.54265 
9483 1 -0.312741 21.0174 0.442026 5 8.509 
9765 2 0.291421 18.5941 0.67181 5 2.63232 
9766 2 1.18833 20.4164 2.16818 5 1.64986 
9975 2 3.50326 19.7715 1.54722 1 0.121035 
10011 2 5.94105 19.1768 1.06498 1 0.0106455 
10357 2 7.52078 20.9242 0.279469 1 0.0010796 
10354 2 8.31252 18.5788 0.536576 1 0.000709972 
10355 2 9.09767 20.3476 2.10855 1 0.000425875 
10801 2 11.4618 19.7558 1.58383 1 6.6343e-05 
10837 2 13.8238 19.168 1.0592 1 1.065e-05 
11346 2 15.3977 20.9278 0.272189 1 2.79973e-06 
11343 2 16.1851 18.5813 0.53452 1 1.77577e-06 
11344 2 16.9719 20.3418 2.10877 1 1.25023e-06 
11864 2 19.3332 19.7552 1.58414 1 2.09641e-07 
11900 2 21.6945 19.1687 1.05949 1 4.67773e-08 
12426 2 23.2688 20.9288 0.272433 1 9.82287e-09 
728 4 -70.2626 22.8007 2.08321 5 24.7808 
1187 4 -68.426 23.3874 0.50902 1 1.4024e-15 
1207 4 -66.0648 23.3874 1.29612 1 6.01201e-16 
1210 4 -64.4906 21.6274 0.50902 1 1.4024e-15 
1781 4 -63.7035 23.3874 2.08321 1 8.00001e-16 
1819 4 -62.1293 21.6274 1.29612 1 4.99105e-08 
1822 1 -59.768 21.6276 2.08321 1 2.48953e-08 
2435 1 -57.9314 22.2145 0.509009 1 7.12644e-09 
2474 1 -55.5702 22.2148 1.29609 1 4.9521e-09 
3088 1 -53.2089 22.2152 2.08316 1 3.41852e-10 
3092 1 -51.3723 22.8021 0.508943 1 1.73313e-09 
3745 1 -49.011 22.8025 1.296 1 8.44235e-10 
3748 1 -46.6498 22.8029 2.08306 1 4.73255e-09 
4366 1 -44.8132 23.3899 0.50883 1 6.13206e-09 
4401 1 -42.4519 23.3904 1.29588 1 3.1756e-09 
4404 1 -40.8776 21.6307 0.50874 1 3.83339e-09 
5019 1 -40.0905 23.3908 2.08291 1 1.6271e-08 
5058 1 -38.5163 21.6311 1.29576 1 7.59883e-09 
5061 1 -36.155 21.6317 2.08279 1 2.42145e-09 
5675 1 -34.3184 22.2188 0.50854 1 1.05292e-08 
5714 1 -31.9571 22.2192 1.2956 1 1.72368e-09 
6328 1 -29.5957 22.2197 2.08266 1 6.12737e-09 
6332 1 -27.7592 22.8067 0.508429 1 5.37746e-09 
6985 1 -25.3979 22.8071 1.29554 1 1.89716e-08 
6988 1 -23.0366 22.8076 2.08265 1 5.64537e-08 
7606 1 -21.2001 23.3946 0.508453 1 2.16937e-07 
7641 1 -18.839 23.3951 1.29558 1 8.45612e-07 
7644 1 -17.2649 21.6353 0.508528 1 1.47594e-06 
8231 1 -16.4777 23.3953 2.08268 1 2.61344e-06 
8270 1 -14.9039 21.6355 1.29568 1 6.12626e-06 
8273 1 -12.5429 21.635 2.08249 1 3.27462e-05 
8757 1 -10.7057 22.222 0.509796 1 0.000213764 
8796 1 -8.33912 22.2184 1.29699 1 0.00204035 
9172 1 -5.96116 22.2074 2.08283 1 0.0189244 
9176 1 -4.16873 22.8077 0.51159 1 0.0305997 
9482 1 -1.8172 22.7997 1.26495 5 1.86121 
9741 2 0.468884 22.8329 1.88185 5 9.5384 
9978 2 2.72919 22.1143 1.27434 1 0.161409 
9980 2 5.14067 21.5188 0.811038 1 0.0135574 
10319 2 5.93655 23.2892 2.37666 1 0.00416898 
11963 2 6.73474 23.2645 0.0249348 1 0.00293914 
10321 2 8.3096 22.6939 1.85113 1 0.000709618 
10804 2 10.674 22.1022 1.32297 1 0.000114254 
10806 2 13.0362 21.5143 0.797145 1 1.6424e-05 
11308 2 13.8234 23.2757 2.37074 1 1.17648e-05 
13043 2 14.6104 23.2741 0.00977994 1 4.85106e-06 
11310 2 16.1849 22.6884 1.84627 1 1.85561e-06 
11867 2 18.5462 22.1017 1.3217 1 2.70173e-07 
11869 2 20.9075 21.5152 0.797075 1 4.38062e-08 
12388 2 21.6946 23.2753 2.37132 1 4.17615e-08 
14123 2 22.4817 23.2754 0.0100277 1 3.46404e-08 
1186 4 -70.0002 25.1474 1.29612 5 18.5856 
1189 4 -67.6389 25.1474 2.08321 1 8.00001e-16 
1756 4 -65.8024 25.7341 0.50902 1 1.0024e-15 
1782 4 -63.4411 25.7341 1.29612 1 1.0012e-15 
1785 4 -61.8669 23.9741 0.50902 1 7.29529e-08 
2403 4 -61.0798 25.7341 2.08321 1 2.08606e-07 
2407 1 -59.2433 26.321 0.509025 1 7.25428e-09 
2434 1 -59.5056 23.9743 1.29611 1 1.73827e-08 
2437 1 -57.1443 23.9746 2.08321 1 8.66219e-09 
3057 1 -56.882 26.3213 1.29611 1 4.50012e-09 
3058 1 -55.3078 24.5615 0.508993 1 3.17017e-09 
3060 1 -54.5207 26.3216 2.08317 1 1.17403e-09 
3089 1 -52.9465 24.5619 1.29606 1 1.13818e-09 
3710 1 -50.5852 24.5623 2.08312 1 1.1349e-09 
3714 1 -48.7487 25.1492 0.508906 1 2.19009e-09 
4365 1 -46.3874 25.1497 1.29596 1 1.25611e-09 
4368 1 -44.0261 25.1501 2.08301 1 3.85573e-09 
4993 1 -42.1895 25.7371 0.508772 1 3.95915e-09 
5020 1 -39.8282 25.7375 1.29581 1 5.51112e-09 
5023 1 -38.2539 23.9779 0.508673 1 3.01448e-09 
5643 1 -37.4668 25.738 2.08285 1 5.41803e-09 
5647 1 -35.6302 26.3251 0.5086 1 2.31336e-09 
5674 1 -35.8926 23.9784 1.2957 1 3.15466e-09 
5677 1 -33.5313 23.9789 2.08273 1 1.03817e-08 
6297 1 -33.2689 26.3256 1.29562 1 5.18489e-09 
6298 1 -31.6947 24.566 0.508499 1 4.02956e-09 
6300 1 -30.9076 26.3261 2.08267 1 3.77321e-09 
6329 1 -29.3334 24.5664 1.29555 1 5.55863e-09 
6950 1 -26.9721 24.5668 2.08262 1 1.85796e-08 
6954 1 -25.1355 25.1538 0.508441 1 2.52557e-08 
7605 1 -22.7742 25.1543 1.29555 1 5.94237e-08 
7608 1 -20.4129 25.1548 2.08263 1 2.19551e-07 
8205 1 -18.5763 25.7419 0.508536 1 4.73739e-07 
8232 1 -16.2147 25.7423 1.29567 1 2.34023e-06 
8235 1 -14.6413 23.9825 0.508863 1 7.28589e-06 
8725 1 -13.8523 25.7422 2.08252 1 1.53969e-05 
8756 1 -12.2791 23.9822 1.29592 1 4.51846e-05 
8729 1 -12.0159 26.3303 0.509083 1 3.86311e-05 
8759 1 -9.91431 23.9806 2.08189 1 0.000394642 
9141 1 -9.65117 26.3305 1.29543 1 0.000174236 
9142 1 -8.0831 24.5723 0.509887 1 0.00076638 
9144 1 -7.28222 26.3307 2.07967 1 0.00120933 
9173 1 -5.71806 24.5719 1.2931 1 0.00434896 
9448 1 -3.36586 24.5707 2.07804 1 0.0477077 
9452 1 -1.46279 25.1484 0.544618 5 7.48512 
9936 2 1.9427 24.5106 1.01294 5 5.2894 
9937 2 2.76433 26.261 2.61852 5 1.89229 
9940 2 3.58699 26.2149 0.261387 1 0.0423649 
9979 2 4.35557 23.8655 0.548124 1 0.0226384 
10274 2 5.1447 25.644 2.1044 1 0.00822262 
10320 2 7.51897 25.0402 1.58667 1 0.001133 
10762 2 9.88527 24.4482 1.06014 1 0.000167136 
10766 2 11.4617 26.2058 0.271992 1 4.80022e-05 
10805 2 12.2485 23.8604 0.534632 1 2.8426e-05 
11263 2 13.0367 25.6224 2.10806 1 2.19987e-05 
11309 2 15.3981 25.0349 1.58381 1 4.10379e-06 
11825 2 17.7593 24.4482 1.05929 1 8.1833e-07 
11829 2 19.3335 26.2083 0.272265 1 3.73638e-07 
11868 2 20.1205 23.8618 0.534673 1 1.73583e-07 
12343 2 20.9075 25.6219 2.10893 1 7.17072e-08 
12389 2 23.2688 25.0355 1.58427 1 1.46765e-08 
1178 4 -69.7379 27.4941 0.50902 5 18.5856 
1755 4 -67.3766 27.4941 1.29612 1 1.0012e-15 
1758 4 -65.0153 27.4941 2.08321 1 6.00001e-16 
2385 4 -63.1787 28.0807 0.50902 1 4.13822e-09 
2404 1 -60.8175 28.0808 1.29612 1 8.12248e-08 
3034 1 -58.4562 28.0811 2.08321 1 6.70536e-09 
3038 1 -56.6196 28.668 0.508997 1 5.23525e-09 
3687 1 -54.2583 28.6683 1.29606 1 2.68514e-09 
3688 1 -52.6842 26.9086 0.508951 1 1.2735e-09 
3690 1 -51.8971 28.6687 2.08314 1 4.3166e-09 
3711 1 -50.3229 26.909 1.29602 1 2.26767e-09 
4338 1 -47.9616 26.9094 2.08308 1 1.03071e-09 
4342 1 -46.125 27.4964 0.50886 1 1.60151e-09 
4992 1 -43.7637 27.4968 1.29591 1 5.31558e-09 
4995 1 -41.4024 27.4972 2.08294 1 4.03396e-09 
5625 1 -39.5658 28.0843 0.508711 1 1.099e-08 
5644 1 -37.2044 28.0848 1.29574 1 6.6455e-09 
6274 1 -34.8431 28.0853 2.08276 1 4.98461e-09 
6278 1 -33.0065 28.6724 0.508517 1 4.56729e-09 
6927 1 -30.6452 28.6728 1.29557 1 2.30771e-09 
6928 1 -29.071 26.9131 0.508439 1 4.44556e-09 
6930 1 -28.2839 28.6733 2.08263 1 3.78408e-09 
6951 1 -26.7097 26.9135 1.29552 1 9.68646e-09 
7578 1 -24.3483 26.914 2.08263 1 1.5187e-08 
7582 1 -22.5117 27.5011 0.508464 1 6.43185e-08 
8204 1 -20.1503 27.5015 1.29556 1 3.03793e-07 
8207 1 -17.7887 27.5019 2.08262 1 1.41401e-06 
8707 1 -15.9521 28.0891 0.508589 1 3.70674e-06 
8726 1 -13.5898 28.0893 1.29565 1 1.45507e-05 
9118 1 -11.2261 28.0891 2.08221 1 7.191e-05 
9122 1 -9.39083 28.6752 0.506 1 0.000419485 
9425 1 -7.02874 28.6702 1.28606 1 0.00559252 
9426 1 -5.43978 26.9097 0.496792 1 0.00796499 
9428 1 -4.68194 28.6645 2.05404 1 0.106863 
9449 1 -3.05133 26.9032 1.2497 1 0.170293 
9888 2 -0.730923 27.051 2.03411 5 6.76745 
9893 2 1.97337 28.5295 2.37513 5 2.99661 
9939 2 1.19039 26.7991 0.717869 5 6.39275 
10277 2 4.3496 28.0008 1.81989 1 0.0280221 
10279 2 6.73031 27.3891 1.3175 1 0.00211706 
10719 2 9.88796 28.5592 2.36908 1 0.000212816 
10765 2 9.09781 26.7932 0.796045 1 0.000288498 
12501 2 10.6757 28.5509 0.0104246 1 0.000129377 
11266 2 12.2501 27.9689 1.84572 1 4.42211e-05 
11268 2 14.6114 27.3814 1.32148 1 9.35759e-06 
11782 2 17.7591 28.5552 2.37118 1 6.67526e-07 
11828 2 16.9724 26.7947 0.796902 1 1.83132e-06 
12346 2 20.1204 27.9686 1.84654 1 1.02648e-07 
13581 2 18.5463 28.5549 0.00986138 1 3.35835e-07 
12348 2 22.4816 27.3821 1.32188 1 2.29219e-08 
1737 4 -68.9508 29.2541 2.08321 5 6.1952 
1738 4 -68.6884 31.6007 1.29612 5 6.1952 
1741 4 -67.1142 29.8407 0.50902 1 9.02401e-16 
2377 4 -66.3271 31.6007 2.08321 1 1.00002e-16 
2384 4 -64.7529 29.8407 1.29612 1 7.012e-16 
2387 4 -62.3916 29.8407 2.08321 1 3.41309e-08 
3026 1 -60.5551 30.4275 0.509021 1 5.72638e-08 
3035 1 -58.1938 30.4278 1.2961 1 6.09058e-09 
3674 1 -55.8325 30.4281 2.08318 1 4.39518e-09 
3676 1 -53.996 31.0151 0.508969 1 1.34765e-09 
4323 1 -51.6347 31.0154 1.29604 1 2.51873e-09 
4324 1 -50.0605 29.2557 0.508928 1 4.72301e-09 
4326 1 -49.2734 31.0158 2.0831 1 1.30133e-09 
4339 1 -47.6992 29.2561 1.29598 1 2.10581e-09 
4969 1 -47.4368 31.6028 0.508876 1 2.78475e-09 
4973 1 -45.3379 29.2565 2.08303 1 2.21376e-09 
4974 1 -45.0755 31.6032 1.29593 1 3.34111e-09 
4977 1 -43.5013 29.8435 0.50882 1 1.0002e-08 
5617 1 -42.7142 31.6036 2.08298 1 3.04066e-09 
5624 1 -41.14 29.8439 1.29585 1 4.57733e-09 
5627 1 -38.7786 29.8444 2.08287 1 1.37534e-08 
6266 1 -36.9421 30.4315 0.508625 1 4.28102e-09 
6275 1 -34.5807 30.432 1.29564 1 1.36981e-08 
6914 1 -32.2194 30.4325 2.08269 1 4.13319e-09 
6916 1 -30.3828 31.0195 0.508473 1 4.44301e-09 
7563 1 -28.0215 31.02 1.29554 1 3.82626e-09 
7564 1 -26.4473 29.2603 0.508422 1 1.25778e-08 
7566 1 -25.6602 31.0204 2.08264 1 1.25281e-08 
7579 1 -24.0859 29.2607 1.29554 1 2.8379e-08 
8181 1 -23.8237 31.6074 0.508446 1 2.4369e-08 
8185 1 -21.7246 29.2612 2.08266 1 1.24721e-07 
8186 1 -21.4624 31.6079 1.29557 1 8.28676e-08 
8189 1 -19.888 29.8482 0.508475 1 1.96565e-07 
8699 1 -19.1011 31.6083 2.08271 1 2.6977e-07 
8706 1 -17.5266 29.8486 1.29563 1 7.21131e-07 
8709 1 -15.1649 29.8487 2.08276 1 2.20748e-06 
9110 1 -13.3294 30.4357 0.508432 1 1.02728e-05 
9119 1 -10.9682 30.4347 1.29484 1 9.64312e-05 
9412 1 -8.60873 30.4318 2.07989 1 0.00120932 
9414 1 -6.75804 31.015 0.513291 1 0.0109093 
9607 1 -4.36087 30.9895 1.30234 1 0.114297 