ITEM: TIMESTEP
0
ITEM: NUMBER OF ATOMS
20292
ITEM: BOX BOUNDS ss pp pp
-64.8131 114.13
0 32.5481
0 37.5833
ITEM: ATOMS id type x y z c_cna c_csd 
1 4 -64.813 0.28551 1.15387 5 18.5856 
3 4 -64.813 2.28408 2.63743 5 18.5856 
6 4 -64.813 2.56959 0.164839 5 18.5856 
16 4 -62.7807 0.856529 2.47259 1 1.00091e-15 
17 4 -60.7484 1.71306 1.31871 1 1.19876e-15 
19 4 -58.7162 0.28551 1.15387 1 3.98188e-16 
78 4 -58.7162 2.28408 2.63743 1 4.99922e-16 
81 4 -58.7162 2.56959 0.164839 1 3.002e-16 
103 4 -56.6839 0.856529 2.47259 1 5.74302e-09 
104 1 -54.6516 1.71306 1.31871 1 1.92787e-09 
106 1 -52.6193 0.28551 1.15388 1 1.26886e-09 
263 1 -52.6193 2.28408 2.63743 1 1.72151e-09 
266 1 -52.6193 2.56959 0.164835 1 7.35329e-10 
300 1 -50.5869 0.856529 2.47259 1 1.61401e-09 
301 1 -48.5546 1.71305 1.31871 1 3.12515e-09 
303 1 -46.5223 0.285497 1.15388 1 2.0414e-09 
559 1 -46.5223 2.28407 2.63742 1 1.92083e-09 
562 1 -46.5223 2.56958 0.164835 1 1.32464e-09 
563 1 -44.4899 1.14203 2.66351e-06 1 1.5526e-09 
608 1 -44.4899 0.856517 2.47259 1 1.3518e-09 
609 1 -42.4576 1.71305 1.31871 1 9.04756e-10 
611 1 -40.4252 0.285499 1.15388 1 1.42479e-09 
964 1 -40.4252 2.28407 2.63743 1 6.60751e-10 
967 1 -40.4252 2.56959 0.164843 1 3.10097e-10 
1021 1 -38.3929 0.856524 2.47258 1 1.58879e-09 
1022 1 -36.3605 1.71305 1.31872 1 1.98086e-09 
1024 1 -34.3282 0.285503 1.15388 1 2.38935e-09 
1470 1 -34.3281 2.28407 2.63743 1 2.21862e-09 
1473 1 -34.3281 2.56958 0.164839 1 2.49824e-09 
1474 1 -32.2958 1.14203 3.30909e-06 1 3.295e-09 
1527 1 -32.2958 0.856513 2.47258 1 2.65411e-09 
1528 1 -30.2634 1.71305 1.3187 1 3.9708e-09 
1530 1 -28.231 0.285504 1.15388 1 3.72959e-09 
2067 1 -28.231 2.28407 2.63741 1 5.28697e-09 
2070 1 -28.231 2.56959 0.164828 1 4.3765e-09 
2071 1 -26.1986 1.14204 1.8734e-06 1 1.15225e-08 
2124 1 -26.1986 0.856514 2.47259 1 4.21979e-09 
2125 1 -24.1662 1.71304 1.3187 1 1.88402e-08 
2127 1 -22.1339 0.285452 1.1539 1 8.34813e-08 
2739 1 -22.1338 2.28404 2.63737 1 6.95146e-08 
2742 1 -22.1339 2.56961 0.164838 1 6.04306e-08 
2743 1 -20.1017 1.14201 2.06314e-05 1 3.59768e-07 
2796 1 -20.1014 0.856425 2.47258 1 1.41247e-07 
2797 1 -18.0692 1.71294 1.31868 1 5.69023e-07 
2799 1 -16.0372 0.285102 1.15394 1 3.21438e-06 
3423 1 -16.0365 2.28387 2.63716 1 2.25767e-06 
3426 1 -16.037 2.56964 0.164939 1 2.03113e-06 
3427 1 -14.0057 1.14172 0.00013185 1 1.28735e-05 
3480 1 -14.0047 0.855758 2.47249 1 8.21165e-06 
3481 1 -11.973 1.71211 1.31855 1 2.83915e-05 
3483 1 -9.94288 0.282657 1.15397 1 0.000148823 
4107 1 -9.93946 2.28282 2.63553 1 0.000109778 
4110 1 -9.94102 2.56969 0.16574 1 8.01206e-05 
4111 1 -7.91533 1.1399 0.000903876 1 0.000460673 
4164 1 -7.91142 0.851446 2.47201 1 0.000417535 
4165 1 -5.88133 1.70432 1.32016 1 0.0017105 
4167 1 -3.8647 0.253251 1.16453 1 0.0290978 
4791 1 -3.83939 2.25633 2.63999 1 0.0153914 
4794 1 -3.85149 2.55389 0.182073 1 0.0179233 
4795 1 -1.86443 1.04932 0.0394761 5 4.32489 
4848 1 -1.7973 0.743187 2.47931 2 4.27247 
9479 2 0.303378 1.80158 2.27697 5 1.18652 
9482 2 2.36065 0.879303 1.1489 1 0.0179174 
9542 2 4.39051 2.28969 0.982191 1 0.00171118 
10103 2 4.37235 0.286236 2.47589 1 0.00180731 
10162 2 4.39873 0.0030101 0.00530439 1 0.00258668 
10163 2 6.41194 1.71225 2.30647 1 0.000355531 
10166 2 8.45026 0.857253 1.15441 1 7.98433e-05 
10226 2 10.4823 2.2844 0.988125 1 2.87146e-05 
10787 2 10.4796 0.285662 2.47346 1 3.53595e-05 
10846 2 10.4837 0.000495696 0.000717551 1 4.3482e-05 
10847 2 12.5131 1.71292 2.30758 1 7.25829e-06 
10850 2 14.5463 0.85659 1.15397 1 2.06709e-06 
10910 2 16.5786 2.28412 0.988922 1 5.92071e-07 
11471 2 16.5782 0.285481 2.47272 1 7.11791e-07 
11530 2 16.5788 3.74736e-05 0.000110874 1 1.22885e-06 
11531 2 18.6107 1.71303 2.30773 1 1.59831e-07 
11534 2 20.6432 0.856535 1.15389 1 4.83001e-08 
11594 2 22.6756 2.28408 0.989009 1 1.89038e-08 
12155 2 22.6756 0.285498 2.47261 1 1.50187e-08 
12214 2 22.6757 5.08337e-06 2.1357e-05 1 2.88511e-08 
4 4 -64.813 4.56816 1.64839 5 18.5856 
8 4 -62.7807 3.14061 1.48355 1 1.09944e-15 
63 4 -62.7807 5.42468 0.494517 1 7.99881e-16 
64 4 -60.7484 3.99714 0.329678 1 1.2998e-15 
79 4 -58.7162 4.56816 1.64839 1 2.9972e-16 
83 4 -56.6839 3.14061 1.48355 1 7.159e-09 
236 4 -56.6839 5.42468 0.494517 1 7.46271e-09 
237 1 -54.6516 3.99714 0.329679 1 7.01625e-10 
264 1 -52.6193 4.56816 1.64839 1 1.38505e-09 
268 1 -50.5869 3.14061 1.48355 1 4.88617e-10 
521 1 -48.5546 3.99713 0.329677 1 2.04363e-09 
560 1 -46.5223 4.56815 1.64839 1 1.75229e-09 
564 1 -44.4899 3.1406 1.48354 1 2.61426e-09 
914 1 -42.4576 3.99714 0.329682 1 1.21394e-09 
965 1 -40.4252 4.56816 1.6484 1 3.5135e-09 
969 1 -38.3929 3.1406 1.48355 1 1.499e-09 
1415 1 -38.3929 5.42468 0.494513 1 2.35086e-09 
1416 1 -36.3605 3.99713 0.329684 1 3.8046e-09 
1471 1 -34.3281 4.56815 1.64839 1 2.40029e-09 
1475 1 -32.2957 3.1406 1.48354 1 3.04091e-09 
2013 1 -30.2634 3.99714 0.32967 1 2.03524e-09 
2068 1 -28.231 4.56816 1.64838 1 3.42636e-09 
2072 1 -26.1986 3.14061 1.48354 1 6.15174e-09 
2685 1 -24.1662 3.99717 0.329668 1 1.78684e-08 
2740 1 -22.1337 4.56817 1.64836 1 6.99782e-08 
2744 1 -20.1013 3.14061 1.48351 1 1.53696e-07 
3369 1 -18.0688 3.99727 0.329717 1 6.86829e-07 
3424 1 -16.0358 4.56823 1.64828 1 3.88744e-06 
3428 1 -14.0038 3.14054 1.48336 1 7.15229e-06 
4053 1 -11.9703 3.99781 0.330257 1 3.53959e-05 
4108 1 -9.93297 4.56866 1.64782 1 0.000224455 
4112 1 -7.90274 3.13991 1.48223 1 0.000356063 
4737 1 -5.86317 3.99963 0.331963 1 0.00180863 
4792 1 -3.80988 4.55893 1.65244 1 0.0154415 
4796 1 -1.79422 3.06968 1.54482 5 1.18663 
5411 1 -1.7699 5.40503 0.524801 1 0.448472 
8906 2 0.306451 3.77413 0.729407 2 4.27243 
8966 2 2.35709 5.15372 0.653413 1 0.0118983 
9480 2 2.34854 3.1567 2.12017 1 0.0153906 
9543 2 4.38991 4.5684 1.97099 1 0.00132627 
9546 2 6.42061 3.71366 0.819493 1 0.000418023 
9606 2 8.45039 5.14067 0.657641 1 7.95274e-05 
10164 2 8.44867 3.13959 2.14085 1 0.00011041 
10227 2 10.4816 4.56777 1.97712 1 1.88315e-05 
10230 2 12.514 3.71193 0.823468 1 8.36072e-06 
10290 2 14.546 5.13943 0.65912 1 1.62579e-06 
10848 2 14.5459 3.14048 2.1426 1 2.28655e-06 
10911 2 16.5783 4.56811 1.97792 1 3.92203e-07 
10914 2 18.6108 3.71168 0.824097 1 1.55641e-07 
10974 2 20.6432 5.13922 0.659324 1 3.65876e-08 
11532 2 20.6432 3.14059 2.14286 1 5.23756e-08 
11595 2 22.6756 4.56815 1.97804 1 1.53372e-08 
54 4 -64.813 6.85223 0.659356 5 18.5856 
61 4 -62.7807 7.42325 1.97807 1 8.00441e-16 
65 4 -60.7484 5.9957 1.81323 1 1.00008e-15 
215 4 -58.7162 6.85223 0.659356 1 2e-16 
234 4 -56.6839 7.42325 1.97807 1 7.46284e-09 
238 1 -54.6516 5.9957 1.81323 1 1.00625e-09 
487 1 -52.6193 6.85223 0.659362 1 1.38497e-09 
518 1 -50.5869 7.42325 1.97807 1 1.32276e-09 
520 1 -50.5869 5.42469 0.49452 1 1.32277e-09 
522 1 -48.5546 5.9957 1.81323 1 3.25724e-10 
868 1 -46.5223 6.85223 0.659353 1 1.75232e-09 
911 1 -44.4899 7.42325 1.97808 1 1.84663e-09 
913 1 -44.4899 5.42469 0.494516 1 1.84665e-09 
915 1 -42.4576 5.9957 1.81323 1 5.25815e-09 
1359 1 -40.4252 6.85223 0.659356 1 3.5137e-09 
1413 1 -38.3929 7.42326 1.97807 1 2.35081e-09 
1417 1 -36.3605 5.9957 1.81323 1 1.71353e-09 
1955 1 -34.3281 6.85223 0.659354 1 2.40036e-09 
2010 1 -32.2957 7.42325 1.97808 1 2.00863e-09 
2012 1 -32.2957 5.42469 0.494514 1 2.00862e-09 
2014 1 -30.2633 5.9957 1.81323 1 2.67991e-09 
2627 1 -28.231 6.85224 0.659367 1 3.42637e-09 
2682 1 -26.1986 7.42324 1.97809 1 1.24148e-08 
2684 1 -26.1986 5.42471 0.494517 1 1.24149e-08 
2686 1 -24.1661 5.9957 1.81323 1 1.61145e-08 
3311 1 -22.1337 6.85225 0.659384 1 6.99784e-08 
3366 1 -20.1012 7.42319 1.97812 1 2.99307e-07 
3368 1 -20.1012 5.42476 0.494543 1 2.99307e-07 
3370 1 -18.0685 5.9957 1.81323 1 1.23245e-06 
3995 1 -16.0358 6.85229 0.65948 1 3.88744e-06 
4050 1 -14.0026 7.42283 1.9783 1 1.69877e-05 
4052 1 -14.0026 5.42509 0.494768 1 1.69877e-05 
4054 1 -11.9676 5.9957 1.81323 1 8.12462e-05 
4679 1 -9.93297 6.85248 0.660079 1 0.000224455 
4734 1 -7.8946 7.421 1.97968 1 0.000834924 
4736 1 -7.8946 5.42721 0.495659 1 0.000834924 
4738 1 -5.84689 5.9957 1.81323 1 0.00391315 
5354 1 -3.80988 6.85334 0.649344 1 0.0154415 
5409 1 -1.7699 7.40685 1.94591 1 0.448472 
8475 2 0.306451 8.04511 0.431202 2 4.27243 
8904 2 0.300024 5.9957 1.81323 2 4.16178 
8967 2 2.35709 7.42113 1.66396 1 0.0118983 
8970 2 4.38991 6.57273 0.498265 1 0.00132627 
9027 2 6.42061 7.99733 0.333794 1 0.000418023 
9544 2 6.42082 5.9957 1.81323 1 0.00015275 
9607 2 8.45039 7.42399 1.65054 1 7.95274e-05 
9610 2 10.4816 6.56773 0.494658 1 1.88315e-05 
9667 2 12.514 7.99475 0.330303 1 8.36072e-06 
10228 2 12.5137 5.9957 1.81323 1 1.79645e-06 
10291 2 14.546 7.42333 1.64873 1 1.62579e-06 
10294 2 16.5783 6.56687 0.494552 1 3.92204e-07 
10351 2 18.6108 7.99433 0.329771 1 1.55641e-07 
10912 2 18.6107 5.9957 1.81323 1 4.88748e-08 
10975 2 20.6432 7.42326 1.64845 1 3.65876e-08 
10978 2 22.6756 6.56675 0.49453 1 1.53372e-08 
55 4 -64.813 8.8508 2.14291 5 18.5856 
200 4 -62.7807 9.70733 0.989035 1 8.99889e-16 
212 4 -60.7484 10.2783 2.30775 1 6.9741e-16 
214 4 -60.7484 8.27978 0.824196 1 1.20092e-15 
216 4 -58.7162 8.8508 2.14291 1 7.98845e-16 
460 4 -56.6839 9.70733 0.989035 1 7.2116e-09 
484 1 -54.6516 10.2783 2.30775 1 3.48627e-10 
486 1 -54.6516 8.27978 0.824194 1 7.01922e-10 
488 1 -52.6193 8.8508 2.14291 1 1.1131e-09 
829 1 -50.5869 9.70733 0.989031 1 2.08087e-09 
865 1 -48.5546 10.2783 2.30776 1 2.68578e-09 
867 1 -48.5546 8.27978 0.824195 1 2.04358e-09 
869 1 -46.5223 8.85079 2.14292 1 3.76945e-09 
1308 1 -44.4899 9.70732 0.989037 1 6.6112e-10 
1356 1 -42.4576 10.2783 2.30775 1 1.42321e-09 
1358 1 -42.4576 8.27978 0.824196 1 1.21389e-09 
1360 1 -40.4252 8.85079 2.14291 1 1.49099e-09 
1898 1 -38.3929 9.70733 0.989031 1 2.93907e-09 
1952 1 -36.3605 10.2783 2.30775 1 9.14575e-10 
1954 1 -36.3605 8.27978 0.824186 1 3.80442e-09 
1956 1 -34.3281 8.85079 2.14292 1 3.49043e-09 
2570 1 -32.2958 9.70732 0.989039 1 2.04103e-09 
2624 1 -30.2634 10.2783 2.30776 1 3.6876e-09 
2626 1 -30.2634 8.27978 0.824206 1 2.03524e-09 
2628 1 -28.231 8.85079 2.14293 1 6.95237e-09 
3254 1 -26.1986 9.70731 0.989054 1 1.00448e-08 
3308 1 -24.1662 10.2783 2.30778 1 2.43089e-08 
3310 1 -24.1662 8.27978 0.824227 1 1.78684e-08 
3312 1 -22.1337 8.85074 2.14297 1 9.2726e-08 
3938 1 -20.1015 9.70723 0.989097 1 2.29826e-07 
3992 1 -18.069 10.2781 2.30785 1 8.52431e-07 
3994 1 -18.0688 8.27968 0.82429 1 6.86829e-07 
3996 1 -16.0363 8.85038 2.14313 1 3.75661e-06 
4622 1 -14.0046 9.70654 0.989204 1 1.01561e-05 
4676 1 -11.9724 10.2765 2.30812 1 4.14387e-05 
4678 1 -11.9703 8.27894 0.824491 1 3.53959e-05 
4680 1 -9.93724 8.84786 2.14401 1 0.000175308 
5297 1 -7.90928 9.70238 0.990194 1 0.000489191 
5351 1 -5.88045 10.2666 2.31376 1 0.00255319 
5353 1 -5.86317 8.27655 0.825216 1 0.00180863 
5355 1 -3.82727 8.83928 2.14784 1 0.0168837 
5900 1 -1.81705 9.60606 0.920799 5 1.65367 
8476 2 0.326194 10.3881 1.3723 5 1.65373 
8478 2 2.33643 9.70882 2.64987 1 0.016877 
8479 2 2.37385 9.42872 0.198096 1 0.0290882 
8968 2 4.38962 8.85146 1.49671 1 0.00255078 
9028 2 6.41847 10.2798 1.32358 1 0.000488525 
9030 2 8.44645 9.70783 2.64054 1 0.000176038 
9031 2 8.45212 9.42316 0.167367 1 0.000149666 
9608 2 10.4817 8.8514 1.48535 1 4.18605e-05 
9668 2 12.5139 10.2786 1.31949 1 1.02759e-05 
9670 2 14.5456 9.70734 2.63791 1 3.85055e-06 
9671 2 14.5465 9.42197 0.165231 1 3.30541e-06 
10292 2 16.5784 8.85084 1.48383 1 8.84932e-07 
10352 2 18.6109 10.2784 1.31883 1 2.50665e-07 
10354 2 20.6431 9.70732 2.6375 1 7.7495e-08 
10355 2 20.6433 9.42183 0.164901 1 7.56637e-08 
10976 2 22.6756 8.8508 1.4836 1 2.1547e-08 
195 4 -64.813 13.419 0.164839 5 18.5856 
197 4 -64.813 13.1334 2.63743 5 18.5856 
199 4 -64.813 11.1349 1.15387 5 18.5856 
202 4 -62.7807 11.7059 2.47259 1 9.00284e-16 
440 4 -60.7484 12.5624 1.31871 1 9.00481e-16 
443 4 -58.7162 13.419 0.164839 1 8.002e-16 
457 4 -58.7162 13.1334 2.63743 1 1.09992e-15 
459 4 -58.7162 11.1349 1.15387 1 6.01205e-16 
462 4 -56.6839 11.7059 2.47259 1 5.74299e-09 
797 1 -54.6516 12.5624 1.31871 1 1.92785e-09 
800 1 -52.6193 13.419 0.164835 1 7.3536e-10 
826 1 -52.6193 13.1334 2.63743 1 1.72154e-09 
828 1 -52.6193 11.1349 1.15388 1 1.26887e-09 
831 1 -50.5869 11.7059 2.47259 1 1.61399e-09 
1264 1 -48.5546 12.5624 1.31871 1 3.12512e-09 
1267 1 -46.5223 13.419 0.164835 1 1.32462e-09 
1305 1 -46.5223 13.1334 2.63742 1 1.92082e-09 
1307 1 -46.5223 11.1349 1.15388 1 2.0414e-09 
1309 1 -44.4899 11.9914 2.66352e-06 1 1.55259e-09 
1310 1 -44.4899 11.7059 2.47259 1 1.3518e-09 
1842 1 -42.4576 12.5624 1.31871 1 9.04761e-10 
1845 1 -40.4252 13.419 0.164843 1 3.10099e-10 
1895 1 -40.4252 13.1334 2.63743 1 6.60744e-10 
1897 1 -40.4252 11.1349 1.15388 1 1.42479e-09 
1900 1 -38.3929 11.7059 2.47258 1 1.58878e-09 
2512 1 -36.3605 12.5624 1.31872 1 1.98088e-09 
2515 1 -34.3281 13.419 0.164839 1 2.49823e-09 
2567 1 -34.3281 13.1334 2.63743 1 2.21861e-09 
2569 1 -34.3282 11.1349 1.15388 1 2.38939e-09 
2571 1 -32.2958 11.9914 3.30905e-06 1 3.29498e-09 
2572 1 -32.2958 11.7059 2.47258 1 2.65408e-09 
3196 1 -30.2634 12.5624 1.3187 1 3.97081e-09 
3199 1 -28.231 13.419 0.164828 1 4.37649e-09 
3251 1 -28.231 13.1334 2.63741 1 5.28698e-09 
3253 1 -28.231 11.1349 1.15388 1 3.7296e-09 
3255 1 -26.1986 11.9914 1.87341e-06 1 1.15226e-08 
3256 1 -26.1986 11.7059 2.47259 1 4.21982e-09 
3880 1 -24.1662 12.5624 1.3187 1 1.88401e-08 
3883 1 -22.1339 13.419 0.164838 1 6.04306e-08 
3935 1 -22.1338 13.1334 2.63737 1 6.95147e-08 
3937 1 -22.1339 11.1348 1.1539 1 8.34813e-08 
3939 1 -20.1017 11.9914 2.06314e-05 1 3.59768e-07 
3940 1 -20.1014 11.7058 2.47258 1 1.41247e-07 
4564 1 -18.0692 12.5623 1.31868 1 5.69023e-07 
4567 1 -16.037 13.419 0.164939 1 2.03113e-06 
4619 1 -16.0365 13.1332 2.63716 1 2.25767e-06 
4621 1 -16.0372 11.1345 1.15394 1 3.21438e-06 
4623 1 -14.0057 11.9911 0.00013185 1 1.28735e-05 
4624 1 -14.0047 11.7051 2.47249 1 8.21165e-06 
5239 1 -11.973 12.5615 1.31855 1 2.83915e-05 
5242 1 -9.94102 13.4191 0.16574 1 8.01206e-05 
5294 1 -9.93946 13.1322 2.63553 1 0.000109778 
5296 1 -9.94288 11.132 1.15397 1 0.000148823 
5298 1 -7.91533 11.9893 0.000903876 1 0.000460673 
5299 1 -7.91142 11.7008 2.47201 1 0.000417535 
5842 1 -5.88133 12.5537 1.32016 1 0.0017105 
5845 1 -3.85149 13.4033 0.182073 1 0.0179233 
5897 1 -3.83939 13.1057 2.63999 1 0.0153914 
5899 1 -3.8647 11.1026 1.16453 1 0.0290978 
5901 1 -1.86443 11.8987 0.0394761 5 4.32489 
5902 1 -1.7973 11.5926 2.47931 2 4.27247 
8071 2 0.303378 12.6509 2.27697 5 1.18652 
8477 2 2.36065 11.7287 1.1489 1 0.0179174 
8483 2 4.37235 11.1356 2.47589 1 0.00180731 
8530 2 4.39873 10.8524 0.00530439 1 0.00258668 
8531 2 4.39051 13.1391 0.982191 1 0.00171118 
8533 2 6.41194 12.5616 2.30647 1 0.000355531 
9029 2 8.45026 11.7066 1.15441 1 7.98433e-05 
9035 2 10.4796 11.135 2.47346 1 3.53595e-05 
9082 2 10.4837 10.8499 0.000717551 1 4.3482e-05 
9083 2 10.4823 13.1338 0.988125 1 2.87146e-05 
9085 2 12.5131 12.5623 2.30758 1 7.25829e-06 
9669 2 14.5463 11.706 1.15397 1 2.06709e-06 
9675 2 16.5782 11.1348 2.47272 1 7.11791e-07 
9722 2 16.5788 10.8494 0.000110874 1 1.22885e-06 
9723 2 16.5786 13.1335 0.988922 1 5.92071e-07 
9725 2 18.6107 12.5624 2.30773 1 1.59831e-07 
10353 2 20.6432 11.7059 1.15389 1 4.83001e-08 
10359 2 22.6756 11.1349 2.47261 1 1.50187e-08 
10406 2 22.6757 10.8494 2.1357e-05 1 2.8851e-08 
10407 2 22.6756 13.1335 0.989009 1 1.89038e-08 
428 4 -64.813 15.4175 1.64839 5 18.5856 
431 4 -62.7807 16.2741 0.494517 1 7.99881e-16 
439 4 -62.7807 13.99 1.48355 1 9.99441e-16 
441 4 -60.7484 14.8465 0.329678 1 1.0998e-15 
773 4 -58.7162 15.4175 1.64839 1 6.9972e-16 
776 4 -56.6839 16.2741 0.494517 1 7.46289e-09 
796 4 -56.6839 13.99 1.48355 1 7.15886e-09 
798 1 -54.6516 14.8465 0.329679 1 7.01613e-10 
1228 1 -52.6193 15.4175 1.64839 1 1.38506e-09 
1263 1 -50.5869 13.99 1.48355 1 4.88603e-10 
1265 1 -48.5546 14.8465 0.329677 1 2.04359e-09 
1794 1 -46.5223 15.4175 1.64839 1 1.7523e-09 
1841 1 -44.4899 13.99 1.48354 1 2.6143e-09 
1843 1 -42.4576 14.8465 0.329682 1 1.21395e-09 
2454 1 -40.4252 15.4175 1.6484 1 3.51348e-09 
2457 1 -38.3929 16.2741 0.494513 1 2.35087e-09 
2511 1 -38.3929 13.99 1.48355 1 1.499e-09 
2513 1 -36.3605 14.8465 0.329684 1 3.80464e-09 
3138 1 -34.3281 15.4175 1.64839 1 2.40029e-09 
3195 1 -32.2957 13.99 1.48354 1 3.04087e-09 
3197 1 -30.2634 14.8465 0.32967 1 2.03525e-09 
3822 1 -28.231 15.4175 1.64838 1 3.42637e-09 
3879 1 -26.1986 13.99 1.48354 1 6.15174e-09 
3881 1 -24.1662 14.8465 0.329668 1 1.78685e-08 
4506 1 -22.1337 15.4175 1.64836 1 6.99782e-08 
4563 1 -20.1013 13.99 1.48351 1 1.53696e-07 
4565 1 -18.0688 14.8466 0.329717 1 6.86829e-07 
5181 1 -16.0358 15.4176 1.64828 1 3.88744e-06 
5238 1 -14.0038 13.9899 1.48336 1 7.15229e-06 
5240 1 -11.9703 14.8472 0.330257 1 3.53959e-05 
5784 1 -9.93297 15.418 1.64782 1 0.000224455 
5841 1 -7.90274 13.9893 1.48223 1 0.000356063 
5843 1 -5.86317 14.849 0.331963 1 0.00180863 
6297 1 -3.80988 15.4083 1.65244 1 0.0154415 
6300 1 -1.7699 16.2544 0.524801 1 0.448472 
6354 1 -1.79422 13.919 1.54482 5 1.18663 
8070 2 0.306451 14.6235 0.729407 2 4.27243 
8075 2 2.34854 14.0061 2.12017 1 0.0153906 
8115 2 2.35709 16.0031 0.653413 1 0.0118983 
8117 2 4.38991 15.4178 1.97099 1 0.00132627 
8532 2 6.42061 14.563 0.819493 1 0.000418023 
8537 2 8.44867 13.989 2.14085 1 0.00011041 
8577 2 8.45039 15.99 0.657641 1 7.95274e-05 
8579 2 10.4816 15.4171 1.97712 1 1.88315e-05 
9084 2 12.514 14.5613 0.823468 1 8.36072e-06 
9089 2 14.5459 13.9898 2.1426 1 2.28655e-06 
9129 2 14.546 15.9888 0.65912 1 1.62579e-06 
9131 2 16.5783 15.4175 1.97792 1 3.92203e-07 
9724 2 18.6108 14.561 0.824097 1 1.55641e-07 
9729 2 20.6432 13.99 2.14286 1 5.23756e-08 
9769 2 20.6432 15.9886 0.659324 1 3.65876e-08 
9771 2 22.6756 15.4175 1.97804 1 1.53371e-08 
429 4 -64.813 17.7016 0.659356 5 18.5856 
757 4 -62.7807 18.2726 1.97807 1 1.30044e-15 
772 4 -60.7484 16.8451 1.81323 1 4.00081e-16 
774 4 -58.7162 17.7016 0.659356 1 4e-16 
1200 4 -56.6839 18.2726 1.97807 1 7.46295e-09 
1227 1 -54.6516 16.8451 1.81323 1 1.00634e-09 
1229 1 -52.6193 17.7016 0.659362 1 1.38495e-09 
1231 1 -50.5869 16.2741 0.49452 1 1.32276e-09 
1754 1 -50.5869 18.2726 1.97807 1 1.32278e-09 
1793 1 -48.5546 16.8451 1.81323 1 3.25727e-10 
1795 1 -46.5223 17.7016 0.659353 1 1.75232e-09 
1797 1 -44.4899 16.2741 0.494516 1 1.84669e-09 
2402 1 -44.4899 18.2726 1.97808 1 1.84663e-09 
2453 1 -42.4576 16.8451 1.81323 1 5.25818e-09 
2455 1 -40.4252 17.7016 0.659356 1 3.51364e-09 
3082 1 -38.3929 18.2726 1.97807 1 2.3508e-09 
3137 1 -36.3605 16.8451 1.81323 1 1.71352e-09 
3139 1 -34.3281 17.7016 0.659354 1 2.40036e-09 
3141 1 -32.2957 16.2741 0.494514 1 2.00863e-09 
3766 1 -32.2957 18.2726 1.97808 1 2.00863e-09 
3821 1 -30.2633 16.8451 1.81323 1 2.67988e-09 
3823 1 -28.231 17.7016 0.659367 1 3.42635e-09 
3825 1 -26.1986 16.2741 0.494517 1 1.24148e-08 
4450 1 -26.1986 18.2726 1.97809 1 1.24148e-08 
4505 1 -24.1661 16.8451 1.81323 1 1.61145e-08 
4507 1 -22.1337 17.7016 0.659384 1 6.99783e-08 
4509 1 -20.1012 16.2741 0.494543 1 2.99307e-07 
5125 1 -20.1012 18.2726 1.97812 1 2.99307e-07 
5180 1 -18.0685 16.8451 1.81323 1 1.23245e-06 
5182 1 -16.0358 17.7017 0.65948 1 3.88744e-06 
5184 1 -14.0026 16.2745 0.494768 1 1.69877e-05 
5728 1 -14.0026 18.2722 1.9783 1 1.69877e-05 
5783 1 -11.9676 16.8451 1.81323 1 8.12462e-05 
5785 1 -9.93297 17.7018 0.660079 1 0.000224455 
5787 1 -7.8946 16.2766 0.495659 1 0.000834924 
6241 1 -7.8946 18.2704 1.97968 1 0.000834924 
6296 1 -5.84689 16.8451 1.81323 1 0.00391315 
6298 1 -3.80988 17.7027 0.649344 1 0.0154415 
6661 1 -1.7699 18.2562 1.94591 1 0.448472 
7752 2 0.300024 16.8451 1.81323 2 4.16178 
7785 2 0.306451 18.8945 0.431202 2 4.27243 
7787 2 2.35709 18.2705 1.66396 1 0.0118983 
8116 2 4.38991 17.4221 0.498265 1 0.00132627 
8121 2 6.42082 16.8451 1.81323 1 0.00015275 
8154 2 6.42061 18.8467 0.333794 1 0.000418023 
8156 2 8.45039 18.2734 1.65054 1 7.95274e-05 
8578 2 10.4816 17.4171 0.494658 1 1.88315e-05 
8583 2 12.5137 16.8451 1.81323 1 1.79645e-06 
8616 2 12.514 18.8441 0.330303 1 8.36072e-06 
8618 2 14.546 18.2727 1.64873 1 1.62579e-06 
9130 2 16.5783 17.4162 0.494552 1 3.92204e-07 
9135 2 18.6107 16.8451 1.81323 1 4.88749e-08 
9168 2 18.6108 18.8437 0.329771 1 1.55641e-07 
9170 2 20.6432 18.2726 1.64845 1 3.65876e-08 
9770 2 22.6756 17.4161 0.49453 1 1.53373e-08 
756 4 -64.813 19.7002 2.14291 5 18.5856 
758 4 -62.7807 20.5567 0.989035 1 1.39988e-15 
760 4 -60.7484 19.1291 0.824196 1 7.0012e-16 
1180 4 -60.7484 21.1277 2.30775 1 5.99801e-16 
1199 4 -58.7162 19.7002 2.14291 1 6.9964e-16 
1201 4 -56.6839 20.5567 0.989035 1 7.21153e-09 
1203 1 -54.6516 19.1291 0.824194 1 7.01977e-10 
1722 1 -54.6516 21.1277 2.30775 1 3.48648e-10 
1753 1 -52.6193 19.7002 2.14291 1 1.11309e-09 
1755 1 -50.5869 20.5567 0.989031 1 2.08088e-09 
1757 1 -48.5546 19.1292 0.824195 1 2.04362e-09 
2358 1 -48.5546 21.1277 2.30776 1 2.68577e-09 
2401 1 -46.5223 19.7002 2.14292 1 3.76943e-09 
2403 1 -44.4899 20.5567 0.989037 1 6.61112e-10 
2405 1 -42.4576 19.1291 0.824196 1 1.21391e-09 
3034 1 -42.4576 21.1277 2.30775 1 1.42321e-09 
3081 1 -40.4252 19.7002 2.14291 1 1.491e-09 
3083 1 -38.3929 20.5567 0.989031 1 2.93905e-09 
3085 1 -36.3605 19.1291 0.824186 1 3.80446e-09 
3718 1 -36.3605 21.1277 2.30775 1 9.14581e-10 
3765 1 -34.3281 19.7002 2.14292 1 3.49046e-09 
3767 1 -32.2958 20.5567 0.989039 1 2.04102e-09 
3769 1 -30.2634 19.1292 0.824206 1 2.03524e-09 
4402 1 -30.2634 21.1277 2.30776 1 3.68761e-09 
4449 1 -28.231 19.7002 2.14293 1 6.95234e-09 
4451 1 -26.1986 20.5567 0.989054 1 1.00448e-08 
4453 1 -24.1662 19.1291 0.824227 1 1.78684e-08 
5077 1 -24.1662 21.1277 2.30778 1 2.43088e-08 
5124 1 -22.1337 19.7001 2.14297 1 9.27259e-08 
5126 1 -20.1015 20.5566 0.989097 1 2.29826e-07 
5128 1 -18.0688 19.129 0.82429 1 6.86829e-07 
5680 1 -18.069 21.1275 2.30785 1 8.52431e-07 
5727 1 -16.0363 19.6997 2.14313 1 3.75661e-06 
5729 1 -14.0046 20.5559 0.989204 1 1.01561e-05 
5731 1 -11.9703 19.1283 0.824491 1 3.53959e-05 
6193 1 -11.9724 21.1259 2.30812 1 4.14387e-05 
6240 1 -9.93724 19.6972 2.14401 1 0.000175308 
6242 1 -7.90928 20.5517 0.990194 1 0.000489191 
6244 1 -5.86317 19.1259 0.825216 1 0.00180863 
6613 1 -5.88045 21.116 2.31376 1 0.00255319 
6660 1 -3.82727 19.6886 2.14784 1 0.0168837 
6662 1 -1.81705 20.4554 0.920799 5 1.65367 
7540 2 0.326194 21.2374 1.3723 5 1.65373 
7786 2 2.37385 20.2781 0.198096 1 0.0290882 
7788 2 2.33643 20.5582 2.64987 1 0.016877 
7791 2 4.38962 19.7008 1.49671 1 0.00255078 
7819 2 6.41847 21.1292 1.32358 1 0.000488525 
8155 2 8.45212 20.2725 0.167367 1 0.000149666 
8157 2 8.44645 20.5572 2.64054 1 0.000176038 
8160 2 10.4817 19.7008 1.48535 1 4.18605e-05 
8188 2 12.5139 21.128 1.31949 1 1.02759e-05 
8617 2 14.5465 20.2713 0.165231 1 3.30541e-06 
8619 2 14.5456 20.5567 2.63791 1 3.85055e-06 
8622 2 16.5784 19.7002 1.48383 1 8.84932e-07 
8650 2 18.6109 21.1277 1.31883 1 2.50665e-07 
9169 2 20.6433 20.2712 0.164901 1 7.56637e-08 
9171 2 20.6431 20.5567 2.6375 1 7.7495e-08 
9174 2 22.6756 19.7002 1.4836 1 2.1547e-08 
752 4 -64.813 21.9842 1.15387 5 18.5856 
1166 4 -64.813 23.9828 2.63743 5 18.5856 
1169 4 -64.813 24.2683 0.164839 5 18.5856 
1179 4 -62.7807 22.5553 2.47259 1 1.30028e-15 
1181 4 -60.7484 23.4118 1.31871 1 9.00481e-16 
1183 4 -58.7162 21.9842 1.15387 1 3.996e-16 
1696 4 -58.7162 23.9828 2.63743 1 4.9992e-16 
1699 4 -58.7162 24.2683 0.164839 1 4.002e-16 
1721 4 -56.6839 22.5553 2.47259 1 5.74319e-09 
1723 1 -54.6516 23.4118 1.31871 1 1.9276e-09 
1725 1 -52.6193 21.9842 1.15388 1 1.26887e-09 
2321 1 -52.6193 23.9828 2.63743 1 1.72149e-09 
2324 1 -52.6193 24.2683 0.164835 1 7.35348e-10 
2357 1 -50.5869 22.5553 2.47259 1 1.61402e-09 
2359 1 -48.5546 23.4118 1.31871 1 3.1251e-09 
2361 1 -46.5223 21.9842 1.15388 1 2.0414e-09 
2995 1 -46.5223 23.9828 2.63742 1 1.92082e-09 
2998 1 -46.5223 24.2683 0.164835 1 1.32463e-09 
2999 1 -44.4899 22.8408 2.66352e-06 1 1.55261e-09 
3033 1 -44.4899 22.5553 2.47259 1 1.3518e-09 
3035 1 -42.4576 23.4118 1.31871 1 9.04763e-10 
3037 1 -40.4252 21.9842 1.15388 1 1.42478e-09 
3679 1 -40.4252 23.9828 2.63743 1 6.60747e-10 
3682 1 -40.4252 24.2683 0.164843 1 3.10105e-10 
3717 1 -38.3929 22.5553 2.47258 1 1.58878e-09 
3719 1 -36.3605 23.4118 1.31872 1 1.98087e-09 
3721 1 -34.3282 21.9842 1.15388 1 2.38938e-09 
4363 1 -34.3281 23.9828 2.63743 1 2.21861e-09 
4366 1 -34.3281 24.2683 0.164839 1 2.49826e-09 
4367 1 -32.2958 22.8408 3.30907e-06 1 3.29502e-09 
4401 1 -32.2958 22.5553 2.47258 1 2.65411e-09 
4403 1 -30.2634 23.4118 1.3187 1 3.97079e-09 
4405 1 -28.231 21.9842 1.15388 1 3.72958e-09 
5038 1 -28.231 23.9828 2.63741 1 5.28694e-09 
5041 1 -28.231 24.2683 0.164828 1 4.37649e-09 
5042 1 -26.1986 22.8408 1.87342e-06 1 1.15225e-08 
5076 1 -26.1986 22.5553 2.47259 1 4.2198e-09 
5078 1 -24.1662 23.4118 1.3187 1 1.88401e-08 
5080 1 -22.1339 21.9842 1.1539 1 8.34814e-08 
5641 1 -22.1338 23.9828 2.63737 1 6.95145e-08 
5644 1 -22.1339 24.2683 0.164838 1 6.04306e-08 
5645 1 -20.1017 22.8407 2.06314e-05 1 3.59767e-07 
5679 1 -20.1014 22.5552 2.47258 1 1.41247e-07 
5681 1 -18.0692 23.4117 1.31868 1 5.69023e-07 
5683 1 -16.0372 21.9838 1.15394 1 3.21438e-06 
6154 1 -16.0365 23.9826 2.63716 1 2.25767e-06 
6157 1 -16.037 24.2684 0.164939 1 2.03113e-06 
6158 1 -14.0057 22.8405 0.00013185 1 1.28735e-05 
6192 1 -14.0047 22.5545 2.47249 1 8.21165e-06 
6194 1 -11.973 23.4109 1.31855 1 2.83915e-05 
6196 1 -9.94288 21.9814 1.15397 1 0.000148823 
6574 1 -9.93946 23.9816 2.63553 1 0.000109778 
6577 1 -9.94102 24.2684 0.16574 1 8.01206e-05 
6578 1 -7.91533 22.8386 0.000903876 1 0.000460673 
6612 1 -7.91142 22.5502 2.47201 1 0.000417535 
6614 1 -5.88133 23.4031 1.32016 1 0.0017105 
6616 1 -3.8647 21.952 1.16453 1 0.0290978 
6904 1 -3.83939 23.9551 2.63999 1 0.0153914 
6907 1 -3.85149 24.2526 0.182073 1 0.0179233 
6908 1 -1.86443 22.7481 0.0394761 5 4.32489 
6942 1 -1.7973 22.4419 2.47931 2 4.27247 
7541 2 0.303378 23.5003 2.27697 5 1.18652 
7544 2 2.36065 22.578 1.1489 1 0.0179174 
7564 2 4.39051 23.9884 0.982191 1 0.00171118 
7789 2 4.37235 21.985 2.47589 1 0.00180731 
7818 2 4.39873 21.7017 0.00530439 1 0.00258668 
7820 2 6.41194 23.411 2.30647 1 0.000355531 
7823 2 8.45026 22.556 1.15441 1 7.98433e-05 
7843 2 10.4823 23.9831 0.988125 1 2.87146e-05 
8158 2 10.4796 21.9844 2.47346 1 3.53595e-05 
8187 2 10.4837 21.6992 0.000717551 1 4.3482e-05 
8189 2 12.5131 23.4117 2.30758 1 7.25829e-06 
8192 2 14.5463 22.5553 1.15397 1 2.06709e-06 
8212 2 16.5786 23.9829 0.988922 1 5.92071e-07 
8620 2 16.5782 21.9842 2.47272 1 7.11791e-07 
8649 2 16.5788 21.6988 0.000110874 1 1.22885e-06 
8651 2 18.6107 23.4118 2.30773 1 1.59832e-07 
8654 2 20.6432 22.5553 1.15389 1 4.83001e-08 
8674 2 22.6756 23.9828 0.989009 1 1.89039e-08 
9172 2 22.6756 21.9842 2.47261 1 1.50187e-08 
9201 2 22.6757 21.6987 2.1357e-05 1 2.8851e-08 
1167 4 -64.813 26.2669 1.64839 5 18.5856 
1171 4 -62.7807 24.8393 1.48355 1 1.19944e-15 
1681 4 -62.7807 27.1234 0.494517 1 8.99881e-16 
1682 4 -60.7484 25.6959 0.329678 1 1.1998e-15 
1697 4 -58.7162 26.2669 1.64839 1 1.9972e-16 
1701 4 -56.6839 24.8393 1.48355 1 7.15909e-09 
2296 4 -56.6839 27.1234 0.494517 1 7.46269e-09 
2297 1 -54.6516 25.6959 0.329679 1 7.01595e-10 
2322 1 -52.6193 26.2669 1.64839 1 1.38505e-09 
2326 1 -50.5869 24.8393 1.48355 1 4.8862e-10 
2969 1 -48.5546 25.6959 0.329677 1 2.04361e-09 
2996 1 -46.5223 26.2669 1.64839 1 1.75229e-09 
3000 1 -44.4899 24.8393 1.48354 1 2.61427e-09 
3653 1 -42.4576 25.6959 0.329682 1 1.21394e-09 
3680 1 -40.4252 26.2669 1.6484 1 3.5135e-09 
3684 1 -38.3929 24.8393 1.48355 1 1.49899e-09 
4336 1 -38.3929 27.1234 0.494513 1 2.35085e-09 
4337 1 -36.3605 25.6959 0.329684 1 3.80465e-09 
4364 1 -34.3281 26.2669 1.64839 1 2.40029e-09 
4368 1 -32.2957 24.8393 1.48354 1 3.04089e-09 
5012 1 -30.2634 25.6959 0.32967 1 2.03526e-09 
5039 1 -28.231 26.2669 1.64838 1 3.42636e-09 
5043 1 -26.1986 24.8393 1.48354 1 6.15174e-09 
5615 1 -24.1662 25.6959 0.329668 1 1.78685e-08 
5642 1 -22.1337 26.2669 1.64836 1 6.99783e-08 
5646 1 -20.1013 24.8393 1.48351 1 1.53696e-07 
6128 1 -18.0688 25.696 0.329717 1 6.86829e-07 
6155 1 -16.0358 26.267 1.64828 1 3.88744e-06 
6159 1 -14.0038 24.8393 1.48336 1 7.15229e-06 
6548 1 -11.9703 25.6965 0.330257 1 3.53959e-05 
6575 1 -9.93297 26.2674 1.64782 1 0.000224455 
6579 1 -7.90274 24.8386 1.48223 1 0.000356063 
6878 1 -5.86317 25.6984 0.331963 1 0.00180863 
6905 1 -3.80988 26.2577 1.65244 1 0.0154415 
6909 1 -1.79422 24.7684 1.54482 5 1.18663 
7117 1 -1.7699 27.1038 0.524801 1 0.448472 
7382 2 0.306451 25.4729 0.729407 2 4.27243 
7395 2 2.35709 26.8525 0.653413 1 0.0118983 
7542 2 2.34854 24.8554 2.12017 1 0.0153906 
7565 2 4.38991 26.2671 1.97099 1 0.00132627 
7568 2 6.42061 25.4124 0.819493 1 0.000418023 
7581 2 8.45039 26.8394 0.657641 1 7.95274e-05 
7821 2 8.44867 24.8383 2.14085 1 0.00011041 
7844 2 10.4816 26.2665 1.97712 1 1.88315e-05 
7847 2 12.514 25.4107 0.823468 1 8.36072e-06 
7860 2 14.546 26.8382 0.65912 1 1.62579e-06 
8190 2 14.5459 24.8392 2.1426 1 2.28655e-06 
8213 2 16.5783 26.2668 1.97792 1 3.92203e-07 
8216 2 18.6108 25.4104 0.824097 1 1.55641e-07 
8229 2 20.6432 26.838 0.659324 1 3.65876e-08 
8652 2 20.6432 24.8393 2.14286 1 5.23756e-08 
8675 2 22.6756 26.2669 1.97804 1 1.53371e-08 
1672 4 -64.813 28.551 0.659356 5 18.5856 
1679 4 -62.7807 29.122 1.97807 1 9.00441e-16 
1683 4 -60.7484 27.6944 1.81323 1 1.00008e-15 
2278 4 -58.7162 28.551 0.659356 1 9.99999e-17 
2294 4 -56.6839 29.122 1.97807 1 7.46284e-09 
2298 1 -54.6516 27.6944 1.81323 1 1.00625e-09 
2950 1 -52.6193 28.551 0.659362 1 1.38499e-09 
2966 1 -50.5869 29.122 1.97807 1 1.32277e-09 
2968 1 -50.5869 27.1234 0.49452 1 1.32277e-09 
2970 1 -48.5546 27.6944 1.81323 1 3.25721e-10 
3634 1 -46.5223 28.551 0.659353 1 1.75234e-09 
3650 1 -44.4899 29.122 1.97808 1 1.84664e-09 
3652 1 -44.4899 27.1234 0.494516 1 1.84666e-09 
3654 1 -42.4576 27.6944 1.81323 1 5.25814e-09 
4318 1 -40.4252 28.551 0.659356 1 3.51372e-09 
4334 1 -38.3929 29.122 1.97807 1 2.35081e-09 
4338 1 -36.3605 27.6944 1.81323 1 1.71353e-09 
4993 1 -34.3281 28.551 0.659354 1 2.40036e-09 