ITEM: TIMESTEP
0
ITEM: NUMBER OF ATOMS
31356
ITEM: BOX BOUNDS ss pp pp
-77.9611 129.907
0 31.68
0 51.9722
ITEM: ATOMS id type x y z c_cna c_csd 
1 4 -77.365 1.76 2.03938 5 30.976 
10 4 -76.5306 1.01525e-15 0.489756 5 18.5856 
92 4 -73.4313 1.01525e-15 2.15859 1 5.9948e-16 
93 4 -74.981 1.76 1.32417 1 1.20138e-15 
96 4 -72.5969 1.76 0.608958 1 5.0056e-16 
271 4 -71.0473 1.01525e-15 1.44337 1 1.00126e-15 
276 4 -69.4977 1.76 2.27779 1 2.279e-09 
307 4 -68.6632 1.01525e-15 0.72816 1 6.54551e-09 
568 1 -66.2792 7.21847e-15 0.012894 1 2.17407e-09 
569 1 -65.564 8.41561e-16 2.39692 1 6.80821e-09 
570 1 -67.1136 1.76 1.56254 1 7.59142e-10 
573 1 -64.7296 1.76 0.847277 1 1.02357e-09 
910 1 -63.1799 0 1.68166 1 1.2471e-08 
915 1 -61.6303 1.76 2.51607 1 3.62696e-09 
946 1 -60.7959 2.54893e-15 0.966438 1 7.04291e-09 
947 1 -62.3455 1.76 0.13203 1 2.91566e-09 
1378 1 -58.4119 0 0.25119 1 4.54552e-09 
1380 1 -59.2463 1.76 1.80085 1 6.80132e-09 
1383 1 -56.8623 1.76 1.08557 1 3.08078e-09 
1900 1 -55.3127 1.71213e-16 1.91996 1 1.70659e-09 
1936 1 -52.9287 2.92077e-16 1.20469 1 2.70544e-09 
1937 1 -54.4783 1.76 0.37031 1 3.44863e-09 
2512 1 -50.5446 5.70885e-15 0.489414 1 6.76392e-09 
2514 1 -51.3791 1.76 2.03908 1 4.90143e-09 
2517 1 -48.9951 1.76 1.3238 1 9.02344e-09 
3097 1 -47.4455 4.82815e-15 2.1582 1 1.42575e-08 
3133 1 -45.0615 6.56888e-15 1.44298 1 1.4458e-08 
3134 1 -46.611 1.76 0.608546 1 1.81888e-08 
3718 1 -42.6774 0 0.72774 1 3.09326e-08 
3720 1 -43.512 1.76 2.27742 1 2.61181e-08 
3723 1 -41.128 1.76 1.56219 1 4.35665e-08 
3754 1 -40.2933 0 0.0125142 1 5.96856e-08 
4303 1 -39.5786 9.0602e-15 2.39669 1 3.67223e-08 
4340 1 -38.7439 1.76 0.846994 1 5.3387e-08 
4339 1 -37.1946 0 1.68151 1 4.91629e-08 
4342 1 -36.3598 1.76 0.131792 1 8.28903e-08 
4926 1 -35.6454 1.76 2.51608 1 4.49707e-08 
4924 1 -34.8105 0 0.96634 1 7.10545e-08 
4929 1 -33.2614 1.76 1.80094 1 7.75108e-08 
4960 1 -32.4265 0 0.251176 1 1.25069e-07 
5546 1 -30.8774 1.76 1.08579 1 1.29825e-07 
5545 1 -29.3285 0 1.92048 1 1.84594e-07 
5548 1 -28.4934 1.76 0.370619 1 2.45637e-07 
6130 1 -26.9447 0 1.20534 1 3.53186e-07 
6135 1 -25.3963 1.76 2.04014 1 5.6403e-07 
6166 1 -24.5609 6.29272e-15 0.490089 1 8.39778e-07 
6744 1 -23.0127 1.76 1.32494 1 1.16122e-06 
6743 1 -21.4652 0 2.16 1 2.62219e-06 
6747 1 -20.6291 1.76 0.609633 1 3.33973e-06 
7327 1 -19.0822 3.58699e-14 1.4448 1 5.34283e-06 
7332 1 -17.5363 1.76 2.28047 1 2.09953e-05 
7363 1 -16.6992 0 0.72937 1 1.57294e-05 
7950 1 -15.155 1.76 1.56535 1 4.12554e-05 
7948 1 -14.3158 9.34489e-14 0.0133665 1 6.18219e-05 
7949 1 -13.6129 5.26387e-14 2.40242 1 0.000259529 
7953 1 -12.7743 1.76 0.849449 1 0.000104146 
8533 1 -11.2373 0 1.68738 1 0.000772244 
8538 1 -9.69994 1.76 2.5269 1 0.00263823 
8570 1 -10.3936 1.76 0.131586 1 0.000402177 
8569 1 -8.86644 1.19507e-13 0.970438 1 0.00286166 
9156 1 -7.3408 1.76 1.81356 1 0.0145477 
9154 1 -6.50322 0 0.250054 1 0.0140499 
9159 1 -5.01157 1.76 1.10566 1 0.133249 
9739 1 -3.34781 0 1.92911 5 0.910647 
9776 1 -2.74458 1.76 0.427927 5 3.66843 
9775 1 -0.172442 0 1.57843 5 5.20548 
11712 1 -0.552583 1.76 0.00402183 5 8.15065 
13606 2 1.61545 1.76 0.762074 1 0.394405 
13608 2 2.34117 0 2.29578 1 0.064041 
14191 2 3.9318 1.76 1.45994 1 0.0262777 
14193 2 5.45288 7.64709e-15 0.607621 1 0.00327313 
14226 2 6.29693 1.76 2.16342 1 0.00273584 
14813 2 7.83451 3.20783e-14 1.32161 1 0.000443957 
14811 2 9.37563 1.76 0.48502 1 0.000414342 
14814 2 10.2192 5.58361e-15 2.03639 1 7.38886e-05 
15397 2 11.765 1.76 1.20153 1 0.000113781 
15399 2 13.3149 6.2616e-14 0.368189 1 0.000120407 
15432 2 14.1524 1.76 1.91786 1 3.95801e-05 
16019 2 15.7026 0 1.0843 1 4.56365e-05 
16017 2 17.2543 1.76 0.250998 1 2.73451e-05 
16020 2 18.0891 1.34126e-14 1.80014 1 1.9246e-05 
16603 2 19.6403 1.76 0.966518 1 1.21337e-05 
16640 2 20.4748 0 2.51578 1 8.76024e-06 
16605 2 21.1919 0 0.132865 1 4.84233e-06 
16638 2 22.0257 1.76 1.68198 1 5.62977e-06 
13581 2 25.1278 1.76 0.0142022 1 8.14935e-07 
17214 2 24.4107 1.76 2.39741 1 2.69141e-06 
17216 2 23.5768 3.45447e-15 0.848158 1 2.40049e-06 
17217 2 25.9614 0 1.56342 1 1.20995e-06 
11 4 -76.5306 3.52 0.489756 5 18.5856 
95 4 -73.4313 3.52 2.15859 1 5.9948e-16 
274 4 -71.0473 3.52 1.44337 1 1.00126e-15 
309 4 -68.6632 3.52 0.72816 1 6.54551e-09 
571 1 -66.2792 3.52 0.012894 1 2.17407e-09 
572 1 -65.564 3.52 2.39692 1 6.80821e-09 
913 1 -63.1799 3.52 1.68166 1 1.2471e-08 
948 1 -60.7959 3.52 0.966438 1 7.04291e-09 
1381 1 -58.4119 3.52 0.25119 1 4.54552e-09 
1903 1 -55.3127 3.52 1.91996 1 1.70659e-09 
1938 1 -52.9287 3.52 1.20469 1 2.70544e-09 
2515 1 -50.5446 3.52 0.489414 1 6.76392e-09 
3100 1 -47.4455 3.52 2.1582 1 1.42575e-08 
3135 1 -45.0615 3.52 1.44298 1 1.4458e-08 
3721 1 -42.6774 3.52 0.72774 1 3.09326e-08 
3755 1 -40.2933 3.52 0.0125142 1 5.96856e-08 
4306 1 -39.5786 3.52 2.39669 1 3.67223e-08 
4341 1 -37.1946 3.52 1.68151 1 4.91629e-08 
4927 1 -34.8105 3.52 0.96634 1 7.10545e-08 
4961 1 -32.4265 3.52 0.251176 1 1.25069e-07 
5547 1 -29.3285 3.52 1.92048 1 1.84594e-07 
6133 1 -26.9447 3.52 1.20534 1 3.53186e-07 
6167 1 -24.5609 3.52 0.490089 1 8.39778e-07 
6746 1 -21.4652 3.52 2.16 1 2.62219e-06 
7330 1 -19.0822 3.52 1.4448 1 5.34283e-06 
7365 1 -16.6992 3.52 0.72937 1 1.57294e-05 
7951 1 -14.3158 3.52 0.0133665 1 6.18219e-05 
7952 1 -13.6129 3.52 2.40242 1 0.000259529 
8536 1 -11.2373 3.52 1.68738 1 0.000772244 
8571 1 -8.86644 3.52 0.970438 1 0.00286166 
9157 1 -6.50322 3.52 0.250054 1 0.0140499 
9742 1 -3.34781 3.52 1.92911 5 0.910647 
9777 1 -0.172442 3.52 1.57843 5 5.20548 
13607 2 2.34117 3.52 2.29578 1 0.064041 
14192 2 5.45288 3.52 0.607621 1 0.00327313 
14809 2 7.83451 3.52 1.32161 1 0.000443957 
14812 2 10.2192 3.52 2.03639 1 7.38886e-05 
15398 2 13.3149 3.52 0.368189 1 0.000120407 
16015 2 15.7026 3.52 1.0843 1 4.56365e-05 
16018 2 18.0891 3.52 1.80014 1 1.9246e-05 
16636 2 20.4748 3.52 2.51578 1 8.76024e-06 
16604 2 21.1919 3.52 0.132865 1 4.84233e-06 
17213 2 23.5768 3.52 0.848158 1 2.40049e-06 
17215 2 25.9614 3.52 1.56342 1 1.20995e-06 
2 4 -77.365 5.28 2.03938 5 30.976 
12 4 -76.5306 7.04 0.489756 5 18.5856 
97 4 -74.981 5.28 1.32417 1 1.20138e-15 
99 4 -73.4313 7.04 2.15859 1 5.9948e-16 
100 4 -72.5969 5.28 0.608958 1 5.0056e-16 
278 4 -71.0473 7.04 1.44337 1 1.00126e-15 
280 4 -69.4977 5.28 2.27779 1 2.279e-09 
311 4 -68.6632 7.04 0.72816 1 6.54551e-09 
574 1 -67.1136 5.28 1.56254 1 7.59142e-10 
575 1 -66.2792 7.04 0.012894 1 2.17407e-09 
576 1 -65.564 7.04 2.39692 1 6.80821e-09 
577 1 -64.7296 5.28 0.847277 1 1.02357e-09 
917 1 -63.1799 7.04 1.68166 1 1.2471e-08 
919 1 -61.6303 5.28 2.51607 1 3.62696e-09 
949 1 -62.3455 5.28 0.13203 1 2.91566e-09 
950 1 -60.7959 7.04 0.966438 1 7.04291e-09 
1384 1 -59.2463 5.28 1.80085 1 6.80132e-09 
1385 1 -58.4119 7.04 0.25119 1 4.54552e-09 
1387 1 -56.8623 5.28 1.08557 1 3.08078e-09 
1907 1 -55.3127 7.04 1.91996 1 1.70659e-09 
1939 1 -54.4783 5.28 0.37031 1 3.44863e-09 
1940 1 -52.9287 7.04 1.20469 1 2.70544e-09 
2518 1 -51.3791 5.28 2.03908 1 4.90143e-09 
2519 1 -50.5446 7.04 0.489414 1 6.76392e-09 
2521 1 -48.9951 5.28 1.3238 1 9.02344e-09 
3104 1 -47.4455 7.04 2.1582 1 1.42575e-08 
3137 1 -46.611 5.28 0.608546 1 1.81888e-08 
3138 1 -45.0615 7.04 1.44298 1 1.4458e-08 
3724 1 -43.512 5.28 2.27742 1 2.61181e-08 
3725 1 -42.6774 7.04 0.72774 1 3.09326e-08 
3727 1 -41.128 5.28 1.56219 1 4.35665e-08 
3756 1 -40.2933 7.04 0.0125142 1 5.96856e-08 
4310 1 -39.5786 7.04 2.39669 1 3.67223e-08 
4343 1 -38.7439 5.28 0.846994 1 5.3387e-08 
4344 1 -37.1946 7.04 1.68151 1 4.91629e-08 
4345 1 -36.3598 5.28 0.131792 1 8.28903e-08 
4930 1 -35.6454 5.28 2.51608 1 4.49707e-08 
4931 1 -34.8105 7.04 0.96634 1 7.10545e-08 
4933 1 -33.2614 5.28 1.80094 1 7.75108e-08 
4962 1 -32.4265 7.04 0.251176 1 1.25069e-07 
5549 1 -30.8774 5.28 1.08579 1 1.29825e-07 
5550 1 -29.3285 7.04 1.92048 1 1.84594e-07 
5551 1 -28.4934 5.28 0.370619 1 2.45637e-07 
6137 1 -26.9447 7.04 1.20534 1 3.53186e-07 
6139 1 -25.3963 5.28 2.04014 1 5.6403e-07 
6168 1 -24.5609 7.04 0.490089 1 8.39778e-07 
6748 1 -23.0127 5.28 1.32494 1 1.16122e-06 
6750 1 -21.4652 7.04 2.16 1 2.62219e-06 
6751 1 -20.6291 5.28 0.609633 1 3.33973e-06 
7334 1 -19.0822 7.04 1.4448 1 5.34283e-06 
7336 1 -17.5363 5.28 2.28047 1 2.09953e-05 
7367 1 -16.6992 7.04 0.72937 1 1.57294e-05 
7954 1 -15.155 5.28 1.56535 1 4.12554e-05 
7955 1 -14.3158 7.04 0.0133665 1 6.18219e-05 
7956 1 -13.6129 7.04 2.40242 1 0.000259529 
7957 1 -12.7743 5.28 0.849449 1 0.000104146 
8540 1 -11.2373 7.04 1.68738 1 0.000772244 
8542 1 -9.69994 5.28 2.5269 1 0.00263823 
8572 1 -10.3936 5.28 0.131586 1 0.000402177 
8573 1 -8.86644 7.04 0.970438 1 0.00286166 
9160 1 -7.3408 5.28 1.81356 1 0.0145477 
9161 1 -6.50322 7.04 0.250054 1 0.0140499 
9163 1 -5.01157 5.28 1.10566 1 0.133249 
9746 1 -3.34781 7.04 1.92911 5 0.910647 
9778 1 -2.74458 5.28 0.427927 5 3.66843 
9779 1 -0.172442 7.04 1.57843 5 5.20548 
11714 1 -0.552583 5.28 0.00402183 5 8.15065 
13603 2 1.61545 5.28 0.762074 1 0.394405 
13604 2 2.34117 7.04 2.29578 1 0.064041 
14189 2 3.9318 5.28 1.45994 1 0.0262777 
14190 2 5.45288 7.04 0.607621 1 0.00327313 
14222 2 6.29693 5.28 2.16342 1 0.00273584 
14805 2 7.83451 7.04 1.32161 1 0.000443957 
14807 2 9.37563 5.28 0.48502 1 0.000414342 
14808 2 10.2192 7.04 2.03639 1 7.38886e-05 
15395 2 11.765 5.28 1.20153 1 0.000113781 
15396 2 13.3149 7.04 0.368189 1 0.000120407 
15428 2 14.1524 5.28 1.91786 1 3.95801e-05 
16011 2 15.7026 7.04 1.0843 1 4.56365e-05 
16013 2 17.2543 5.28 0.250998 1 2.73451e-05 
16014 2 18.0891 7.04 1.80014 1 1.9246e-05 
16601 2 19.6403 5.28 0.966518 1 1.21337e-05 
16632 2 20.4748 7.04 2.51578 1 8.76024e-06 
16602 2 21.1919 7.04 0.132865 1 4.84233e-06 
16634 2 22.0257 5.28 1.68198 1 5.62977e-06 
13580 2 25.1278 5.28 0.0142022 1 8.14935e-07 
17210 2 23.5768 7.04 0.848158 1 2.40049e-06 
17211 2 24.4107 5.28 2.39741 1 2.69141e-06 
17212 2 25.9614 7.04 1.56342 1 1.20995e-06 
3 4 -77.365 8.8 2.03938 5 30.976 
101 4 -74.981 8.8 1.32417 1 1.20138e-15 
104 4 -72.5969 8.8 0.608958 1 5.0056e-16 
284 4 -69.4977 8.8 2.27779 1 2.279e-09 
578 1 -67.1136 8.8 1.56254 1 7.59142e-10 
581 1 -64.7296 8.8 0.847277 1 1.02357e-09 
923 1 -61.6303 8.8 2.51607 1 3.62696e-09 
951 1 -62.3455 8.8 0.13203 1 2.91566e-09 
1388 1 -59.2463 8.8 1.80085 1 6.80132e-09 
1391 1 -56.8623 8.8 1.08557 1 3.08078e-09 
1941 1 -54.4783 8.8 0.37031 1 3.44863e-09 
2522 1 -51.3791 8.8 2.03908 1 4.90143e-09 
2525 1 -48.9951 8.8 1.3238 1 9.02344e-09 
3140 1 -46.611 8.8 0.608546 1 1.81888e-08 
3728 1 -43.512 8.8 2.27742 1 2.61181e-08 
3731 1 -41.128 8.8 1.56219 1 4.35665e-08 
4346 1 -38.7439 8.8 0.846994 1 5.3387e-08 
4348 1 -36.3598 8.8 0.131792 1 8.28903e-08 
4934 1 -35.6454 8.8 2.51608 1 4.49707e-08 
4937 1 -33.2614 8.8 1.80094 1 7.75108e-08 
5552 1 -30.8774 8.8 1.08579 1 1.29825e-07 
5554 1 -28.4934 8.8 0.370619 1 2.45637e-07 
6143 1 -25.3963 8.8 2.04014 1 5.6403e-07 
6752 1 -23.0127 8.8 1.32494 1 1.16122e-06 
6755 1 -20.6291 8.8 0.609633 1 3.33973e-06 
7340 1 -17.5363 8.8 2.28047 1 2.09953e-05 
7958 1 -15.155 8.8 1.56535 1 4.12554e-05 
7961 1 -12.7743 8.8 0.849449 1 0.000104146 
8546 1 -9.69994 8.8 2.5269 1 0.00263823 
8574 1 -10.3936 8.8 0.131586 1 0.000402177 
9164 1 -7.3408 8.8 1.81356 1 0.0145477 
9167 1 -5.01157 8.8 1.10566 1 0.133249 
9780 1 -2.74458 8.8 0.427927 5 3.66843 
11716 1 -0.552583 8.8 0.00402183 5 8.15065 
13600 2 1.61545 8.8 0.762074 1 0.394405 
14187 2 3.9318 8.8 1.45994 1 0.0262777 
14218 2 6.29693 8.8 2.16342 1 0.00273584 
14803 2 9.37563 8.8 0.48502 1 0.000414342 
15393 2 11.765 8.8 1.20153 1 0.000113781 
15424 2 14.1524 8.8 1.91786 1 3.95801e-05 
16009 2 17.2543 8.8 0.250998 1 2.73451e-05 
16599 2 19.6403 8.8 0.966518 1 1.21337e-05 
16630 2 22.0257 8.8 1.68198 1 5.62977e-06 
13579 2 25.1278 8.8 0.0142022 1 8.14935e-07 
17208 2 24.4107 8.8 2.39741 1 2.69141e-06 
4 4 -77.365 12.32 2.03938 5 30.976 
13 4 -76.5306 10.56 0.489756 5 18.5856 
103 4 -73.4313 10.56 2.15859 1 5.9948e-16 
105 4 -74.981 12.32 1.32417 1 1.20138e-15 
108 4 -72.5969 12.32 0.608958 1 5.0056e-16 
282 4 -71.0473 10.56 1.44337 1 1.00126e-15 
288 4 -69.4977 12.32 2.27779 1 2.279e-09 
313 4 -68.6632 10.56 0.72816 1 6.54551e-09 
579 1 -66.2792 10.56 0.012894 1 2.17407e-09 
580 1 -65.564 10.56 2.39692 1 6.80821e-09 
582 1 -67.1136 12.32 1.56254 1 7.59142e-10 
585 1 -64.7296 12.32 0.847277 1 1.02357e-09 
921 1 -63.1799 10.56 1.68166 1 1.2471e-08 
927 1 -61.6303 12.32 2.51607 1 3.62696e-09 
952 1 -60.7959 10.56 0.966438 1 7.04291e-09 
953 1 -62.3455 12.32 0.13203 1 2.91566e-09 
1389 1 -58.4119 10.56 0.25119 1 4.54552e-09 
1392 1 -59.2463 12.32 1.80085 1 6.80132e-09 
1395 1 -56.8623 12.32 1.08557 1 3.08078e-09 
1911 1 -55.3127 10.56 1.91996 1 1.70659e-09 
1942 1 -52.9287 10.56 1.20469 1 2.70544e-09 
1943 1 -54.4783 12.32 0.37031 1 3.44863e-09 
2523 1 -50.5446 10.56 0.489414 1 6.76392e-09 
2526 1 -51.3791 12.32 2.03908 1 4.90143e-09 
2529 1 -48.9951 12.32 1.3238 1 9.02344e-09 
3108 1 -47.4455 10.56 2.1582 1 1.42575e-08 
3141 1 -45.0615 10.56 1.44298 1 1.4458e-08 
3143 1 -46.611 12.32 0.608546 1 1.81888e-08 
3729 1 -42.6774 10.56 0.72774 1 3.09326e-08 
3732 1 -43.512 12.32 2.27742 1 2.61181e-08 
3735 1 -41.128 12.32 1.56219 1 4.35665e-08 
3757 1 -40.2933 10.56 0.0125142 1 5.96856e-08 
4314 1 -39.5786 10.56 2.39669 1 3.67223e-08 
4349 1 -38.7439 12.32 0.846994 1 5.3387e-08 
4347 1 -37.1946 10.56 1.68151 1 4.91629e-08 
4351 1 -36.3598 12.32 0.131792 1 8.28903e-08 
4938 1 -35.6454 12.32 2.51608 1 4.49707e-08 
4935 1 -34.8105 10.56 0.96634 1 7.10545e-08 
4941 1 -33.2614 12.32 1.80094 1 7.75108e-08 
4963 1 -32.4265 10.56 0.251176 1 1.25069e-07 
5555 1 -30.8774 12.32 1.08579 1 1.29825e-07 
5553 1 -29.3285 10.56 1.92048 1 1.84594e-07 
5557 1 -28.4934 12.32 0.370619 1 2.45637e-07 
6141 1 -26.9447 10.56 1.20534 1 3.53186e-07 
6147 1 -25.3963 12.32 2.04014 1 5.6403e-07 
6169 1 -24.5609 10.56 0.490089 1 8.39778e-07 
6756 1 -23.0127 12.32 1.32494 1 1.16122e-06 
6754 1 -21.4652 10.56 2.16 1 2.62219e-06 
6759 1 -20.6291 12.32 0.609633 1 3.33973e-06 
7338 1 -19.0822 10.56 1.4448 1 5.34283e-06 
7344 1 -17.5363 12.32 2.28047 1 2.09953e-05 
7369 1 -16.6992 10.56 0.72937 1 1.57294e-05 
7962 1 -15.155 12.32 1.56535 1 4.12554e-05 
7959 1 -14.3158 10.56 0.0133665 1 6.18219e-05 
7960 1 -13.6129 10.56 2.40242 1 0.000259529 
7965 1 -12.7743 12.32 0.849449 1 0.000104146 
8544 1 -11.2373 10.56 1.68738 1 0.000772244 
8550 1 -9.69994 12.32 2.5269 1 0.00263823 
8576 1 -10.3936 12.32 0.131586 1 0.000402177 
8575 1 -8.86644 10.56 0.970438 1 0.00286166 
9168 1 -7.3408 12.32 1.81356 1 0.0145477 
9165 1 -6.50322 10.56 0.250054 1 0.0140499 
9171 1 -5.01157 12.32 1.10566 1 0.133249 
9750 1 -3.34781 10.56 1.92911 5 0.910647 
9782 1 -2.74458 12.32 0.427927 5 3.66843 
9781 1 -0.172442 10.56 1.57843 5 5.20548 
11718 1 -0.552583 12.32 0.00402183 5 8.15065 
13597 2 1.61545 12.32 0.762074 1 0.394405 
13601 2 2.34117 10.56 2.29578 1 0.064041 
14185 2 3.9318 12.32 1.45994 1 0.0262777 
14188 2 5.45288 10.56 0.607621 1 0.00327313 
14214 2 6.29693 12.32 2.16342 1 0.00273584 
14801 2 7.83451 10.56 1.32161 1 0.000443957 
14799 2 9.37563 12.32 0.48502 1 0.000414342 
14804 2 10.2192 10.56 2.03639 1 7.38886e-05 
15391 2 11.765 12.32 1.20153 1 0.000113781 
15394 2 13.3149 10.56 0.368189 1 0.000120407 
15420 2 14.1524 12.32 1.91786 1 3.95801e-05 
16007 2 15.7026 10.56 1.0843 1 4.56365e-05 
16005 2 17.2543 12.32 0.250998 1 2.73451e-05 
16010 2 18.0891 10.56 1.80014 1 1.9246e-05 
16597 2 19.6403 12.32 0.966518 1 1.21337e-05 
16628 2 20.4748 10.56 2.51578 1 8.76024e-06 
16600 2 21.1919 10.56 0.132865 1 4.84233e-06 
16626 2 22.0257 12.32 1.68198 1 5.62977e-06 
13578 2 25.1278 12.32 0.0142022 1 8.14935e-07 
17205 2 24.4107 12.32 2.39741 1 2.69141e-06 
17207 2 23.5768 10.56 0.848158 1 2.40049e-06 
17209 2 25.9614 10.56 1.56342 1 1.20995e-06 
14 4 -76.5306 14.08 0.489756 5 18.5856 
107 4 -73.4313 14.08 2.15859 1 5.9948e-16 
286 4 -71.0473 14.08 1.44337 1 1.00126e-15 
315 4 -68.6632 14.08 0.72816 1 6.54551e-09 
583 1 -66.2792 14.08 0.012894 1 2.17407e-09 
584 1 -65.564 14.08 2.39692 1 6.80821e-09 
925 1 -63.1799 14.08 1.68166 1 1.2471e-08 
954 1 -60.7959 14.08 0.966438 1 7.04291e-09 
1393 1 -58.4119 14.08 0.25119 1 4.54552e-09 
1915 1 -55.3127 14.08 1.91996 1 1.70659e-09 
1944 1 -52.9287 14.08 1.20469 1 2.70544e-09 
2527 1 -50.5446 14.08 0.489414 1 6.76392e-09 
3112 1 -47.4455 14.08 2.1582 1 1.42575e-08 
3144 1 -45.0615 14.08 1.44298 1 1.4458e-08 
3733 1 -42.6774 14.08 0.72774 1 3.09326e-08 
3758 1 -40.2933 14.08 0.0125142 1 5.96856e-08 
4318 1 -39.5786 14.08 2.39669 1 3.67223e-08 
4350 1 -37.1946 14.08 1.68151 1 4.91629e-08 
4939 1 -34.8105 14.08 0.96634 1 7.10545e-08 
4964 1 -32.4265 14.08 0.251176 1 1.25069e-07 
5556 1 -29.3285 14.08 1.92048 1 1.84594e-07 
6145 1 -26.9447 14.08 1.20534 1 3.53186e-07 
6170 1 -24.5609 14.08 0.490089 1 8.39778e-07 
6758 1 -21.4652 14.08 2.16 1 2.62219e-06 
7342 1 -19.0822 14.08 1.4448 1 5.34283e-06 
7371 1 -16.6992 14.08 0.72937 1 1.57294e-05 
7963 1 -14.3158 14.08 0.0133665 1 6.18219e-05 
7964 1 -13.6129 14.08 2.40242 1 0.000259529 
8548 1 -11.2373 14.08 1.68738 1 0.000772244 
8577 1 -8.86644 14.08 0.970438 1 0.00286166 
9169 1 -6.50322 14.08 0.250054 1 0.0140499 
9754 1 -3.34781 14.08 1.92911 5 0.910647 
9783 1 -0.172442 14.08 1.57843 5 5.20548 
13598 2 2.34117 14.08 2.29578 1 0.064041 
14186 2 5.45288 14.08 0.607621 1 0.00327313 
14797 2 7.83451 14.08 1.32161 1 0.000443957 
14800 2 10.2192 14.08 2.03639 1 7.38886e-05 
15392 2 13.3149 14.08 0.368189 1 0.000120407 
16003 2 15.7026 14.08 1.0843 1 4.56365e-05 
16006 2 18.0891 14.08 1.80014 1 1.9246e-05 
16624 2 20.4748 14.08 2.51578 1 8.76024e-06 
16598 2 21.1919 14.08 0.132865 1 4.84233e-06 
17204 2 23.5768 14.08 0.848158 1 2.40049e-06 
17206 2 25.9614 14.08 1.56342 1 1.20995e-06 
5 4 -77.365 15.84 2.03938 5 30.976 
15 4 -76.5306 17.6 0.489756 5 18.5856 
109 4 -74.981 15.84 1.32417 1 1.20138e-15 
111 4 -73.4313 17.6 2.15859 1 5.9948e-16 
112 4 -72.5969 15.84 0.608958 1 5.0056e-16 
290 4 -71.0473 17.6 1.44337 1 1.00126e-15 
292 4 -69.4977 15.84 2.27779 1 2.279e-09 
317 4 -68.6632 17.6 0.72816 1 6.54551e-09 
586 1 -67.1136 15.84 1.56254 1 7.59142e-10 
587 1 -66.2792 17.6 0.012894 1 2.17407e-09 
588 1 -65.564 17.6 2.39692 1 6.80821e-09 
589 1 -64.7296 15.84 0.847277 1 1.02357e-09 
929 1 -63.1799 17.6 1.68166 1 1.2471e-08 
931 1 -61.6303 15.84 2.51607 1 3.62696e-09 
955 1 -62.3455 15.84 0.13203 1 2.91566e-09 
956 1 -60.7959 17.6 0.966438 1 7.04291e-09 
1396 1 -59.2463 15.84 1.80085 1 6.80132e-09 
1397 1 -58.4119 17.6 0.25119 1 4.54552e-09 
1399 1 -56.8623 15.84 1.08557 1 3.08078e-09 
1919 1 -55.3127 17.6 1.91996 1 1.70659e-09 
1945 1 -54.4783 15.84 0.37031 1 3.44863e-09 
1946 1 -52.9287 17.6 1.20469 1 2.70544e-09 
2530 1 -51.3791 15.84 2.03908 1 4.90143e-09 
2531 1 -50.5446 17.6 0.489414 1 6.76392e-09 
2533 1 -48.9951 15.84 1.3238 1 9.02344e-09 
3116 1 -47.4455 17.6 2.1582 1 1.42575e-08 
3146 1 -46.611 15.84 0.608546 1 1.81888e-08 
3147 1 -45.0615 17.6 1.44298 1 1.4458e-08 
3736 1 -43.512 15.84 2.27742 1 2.61181e-08 
3737 1 -42.6774 17.6 0.72774 1 3.09326e-08 
3739 1 -41.128 15.84 1.56219 1 4.35665e-08 
3759 1 -40.2933 17.6 0.0125142 1 5.96856e-08 
4322 1 -39.5786 17.6 2.39669 1 3.67223e-08 
4352 1 -38.7439 15.84 0.846994 1 5.3387e-08 
4353 1 -37.1946 17.6 1.68151 1 4.91629e-08 
4354 1 -36.3598 15.84 0.131792 1 8.28903e-08 
4942 1 -35.6454 15.84 2.51608 1 4.49707e-08 
4943 1 -34.8105 17.6 0.96634 1 7.10545e-08 
4945 1 -33.2614 15.84 1.80094 1 7.75108e-08 
4965 1 -32.4265 17.6 0.251176 1 1.25069e-07 
5558 1 -30.8774 15.84 1.08579 1 1.29825e-07 
5559 1 -29.3285 17.6 1.92048 1 1.84594e-07 
5560 1 -28.4934 15.84 0.370619 1 2.45637e-07 
6149 1 -26.9447 17.6 1.20534 1 3.53186e-07 
6151 1 -25.3963 15.84 2.04014 1 5.6403e-07 
6171 1 -24.5609 17.6 0.490089 1 8.39778e-07 
6760 1 -23.0127 15.84 1.32494 1 1.16122e-06 
6762 1 -21.4652 17.6 2.16 1 2.62219e-06 
6763 1 -20.6291 15.84 0.609633 1 3.33973e-06 
7346 1 -19.0822 17.6 1.4448 1 5.34283e-06 
7348 1 -17.5363 15.84 2.28047 1 2.09953e-05 
7373 1 -16.6992 17.6 0.72937 1 1.57294e-05 
7966 1 -15.155 15.84 1.56535 1 4.12554e-05 
7967 1 -14.3158 17.6 0.0133665 1 6.18219e-05 
7968 1 -13.6129 17.6 2.40242 1 0.000259529 
7969 1 -12.7743 15.84 0.849449 1 0.000104146 
8552 1 -11.2373 17.6 1.68738 1 0.000772244 
8554 1 -9.69994 15.84 2.5269 1 0.00263823 
8578 1 -10.3936 15.84 0.131586 1 0.000402177 
8579 1 -8.86644 17.6 0.970438 1 0.00286166 
9172 1 -7.3408 15.84 1.81356 1 0.0145477 
9173 1 -6.50322 17.6 0.250054 1 0.0140499 
9175 1 -5.01157 15.84 1.10566 1 0.133249 
9758 1 -3.34781 17.6 1.92911 5 0.910647 
9784 1 -2.74458 15.84 0.427927 5 3.66843 
9785 1 -0.172442 17.6 1.57843 5 5.20548 
11720 1 -0.552583 15.84 0.00402183 5 8.15065 
13594 2 1.61545 15.84 0.762074 1 0.394405 
13595 2 2.34117 17.6 2.29578 1 0.064041 
14183 2 3.9318 15.84 1.45994 1 0.0262777 
14184 2 5.45288 17.6 0.607621 1 0.00327313 
14210 2 6.29693 15.84 2.16342 1 0.00273584 
14793 2 7.83451 17.6 1.32161 1 0.000443957 
14795 2 9.37563 15.84 0.48502 1 0.000414342 
14796 2 10.2192 17.6 2.03639 1 7.38886e-05 
15389 2 11.765 15.84 1.20153 1 0.000113781 
15390 2 13.3149 17.6 0.368189 1 0.000120407 
15416 2 14.1524 15.84 1.91786 1 3.95801e-05 
15999 2 15.7026 17.6 1.0843 1 4.56365e-05 
16001 2 17.2543 15.84 0.250998 1 2.73451e-05 
16002 2 18.0891 17.6 1.80014 1 1.9246e-05 
16595 2 19.6403 15.84 0.966518 1 1.21337e-05 
16620 2 20.4748 17.6 2.51578 1 8.76024e-06 
16596 2 21.1919 17.6 0.132865 1 4.84233e-06 
16622 2 22.0257 15.84 1.68198 1 5.62977e-06 
13577 2 25.1278 15.84 0.0142022 1 8.14935e-07 
17201 2 23.5768 17.6 0.848158 1 2.40049e-06 
17202 2 24.4107 15.84 2.39741 1 2.69141e-06 
17203 2 25.9614 17.6 1.56342 1 1.20995e-06 
6 4 -77.365 19.36 2.03938 5 30.976 
113 4 -74.981 19.36 1.32417 1 1.20138e-15 
116 4 -72.5969 19.36 0.608958 1 5.0056e-16 
296 4 -69.4977 19.36 2.27779 1 2.279e-09 
590 1 -67.1136 19.36 1.56254 1 7.59142e-10 
593 1 -64.7296 19.36 0.847277 1 1.02357e-09 
935 1 -61.6303 19.36 2.51607 1 3.62696e-09 
957 1 -62.3455 19.36 0.13203 1 2.91566e-09 
1400 1 -59.2463 19.36 1.80085 1 6.80132e-09 
1403 1 -56.8623 19.36 1.08557 1 3.08078e-09 
1947 1 -54.4783 19.36 0.37031 1 3.44863e-09 
2534 1 -51.3791 19.36 2.03908 1 4.90143e-09 
2537 1 -48.9951 19.36 1.3238 1 9.02344e-09 
3149 1 -46.611 19.36 0.608546 1 1.81888e-08 
3740 1 -43.512 19.36 2.27742 1 2.61181e-08 
3743 1 -41.128 19.36 1.56219 1 4.35665e-08 
4355 1 -38.7439 19.36 0.846994 1 5.3387e-08 
4357 1 -36.3598 19.36 0.131792 1 8.28903e-08 
4946 1 -35.6454 19.36 2.51608 1 4.49707e-08 
4949 1 -33.2614 19.36 1.80094 1 7.75108e-08 
5561 1 -30.8774 19.36 1.08579 1 1.29825e-07 
5563 1 -28.4934 19.36 0.370619 1 2.45637e-07 
6155 1 -25.3963 19.36 2.04014 1 5.6403e-07 
6764 1 -23.0127 19.36 1.32494 1 1.16122e-06 
6767 1 -20.6291 19.36 0.609633 1 3.33973e-06 
7352 1 -17.5363 19.36 2.28047 1 2.09953e-05 
7970 1 -15.155 19.36 1.56535 1 4.12554e-05 
7973 1 -12.7743 19.36 0.849449 1 0.000104146 
8558 1 -9.69994 19.36 2.5269 1 0.00263823 
8580 1 -10.3936 19.36 0.131586 1 0.000402177 
9176 1 -7.3408 19.36 1.81356 1 0.0145477 
9179 1 -5.01157 19.36 1.10566 1 0.133249 
9786 1 -2.74458 19.36 0.427927 5 3.66843 
11722 1 -0.552583 19.36 0.00402183 5 8.15065 
13591 2 1.61545 19.36 0.762074 1 0.394405 
14181 2 3.9318 19.36 1.45994 1 0.0262777 
14206 2 6.29693 19.36 2.16342 1 0.00273584 
14791 2 9.37563 19.36 0.48502 1 0.000414342 
15387 2 11.765 19.36 1.20153 1 0.000113781 
15412 2 14.1524 19.36 1.91786 1 3.95801e-05 
15997 2 17.2543 19.36 0.250998 1 2.73451e-05 
16593 2 19.6403 19.36 0.966518 1 1.21337e-05 
16618 2 22.0257 19.36 1.68198 1 5.62977e-06 
13576 2 25.1278 19.36 0.0142022 1 8.14935e-07 
17199 2 24.4107 19.36 2.39741 1 2.69141e-06 
7 4 -77.365 22.88 2.03938 5 30.976 
16 4 -76.5306 21.12 0.489756 5 18.5856 
115 4 -73.4313 21.12 2.15859 1 5.9948e-16 
117 4 -74.981 22.88 1.32417 1 1.20138e-15 
120 4 -72.5969 22.88 0.608958 1 5.0056e-16 
294 4 -71.0473 21.12 1.44337 1 1.00126e-15 
300 4 -69.4977 22.88 2.27779 1 2.279e-09 
319 4 -68.6632 21.12 0.72816 1 6.54551e-09 
591 1 -66.2792 21.12 0.012894 1 2.17407e-09 
592 1 -65.564 21.12 2.39692 1 6.80821e-09 
594 1 -67.1136 22.88 1.56254 1 7.59142e-10 
597 1 -64.7296 22.88 0.847277 1 1.02357e-09 
933 1 -63.1799 21.12 1.68166 1 1.2471e-08 
939 1 -61.6303 22.88 2.51607 1 3.62696e-09 
958 1 -60.7959 21.12 0.966438 1 7.04291e-09 
959 1 -62.3455 22.88 0.13203 1 2.91566e-09 
1401 1 -58.4119 21.12 0.25119 1 4.54552e-09 
1404 1 -59.2463 22.88 1.80085 1 6.80132e-09 
1407 1 -56.8623 22.88 1.08557 1 3.08078e-09 
1923 1 -55.3127 21.12 1.91996 1 1.70659e-09 
1948 1 -52.9287 21.12 1.20469 1 2.70544e-09 
1949 1 -54.4783 22.88 0.37031 1 3.44863e-09 
2535 1 -50.5446 21.12 0.489414 1 6.76392e-09 
2538 1 -51.3791 22.88 2.03908 1 4.90143e-09 
2541 1 -48.9951 22.88 1.3238 1 9.02344e-09 
3120 1 -47.4455 21.12 2.1582 1 1.42575e-08 
3150 1 -45.0615 21.12 1.44298 1 1.4458e-08 
3152 1 -46.611 22.88 0.608546 1 1.81888e-08 
3741 1 -42.6774 21.12 0.72774 1 3.09326e-08 
3744 1 -43.512 22.88 2.27742 1 2.61181e-08 
3747 1 -41.128 22.88 1.56219 1 4.35665e-08 
3760 1 -40.2933 21.12 0.0125142 1 5.96856e-08 
4326 1 -39.5786 21.12 2.39669 1 3.67223e-08 
4358 1 -38.7439 22.88 0.846994 1 5.3387e-08 
4356 1 -37.1946 21.12 1.68151 1 4.91629e-08 
4360 1 -36.3598 22.88 0.131792 1 8.28903e-08 
4950 1 -35.6454 22.88 2.51608 1 4.49707e-08 
4947 1 -34.8105 21.12 0.96634 1 7.10545e-08 
4953 1 -33.2614 22.88 1.80094 1 7.75108e-08 
4966 1 -32.4265 21.12 0.251176 1 1.25069e-07 
5564 1 -30.8774 22.88 1.08579 1 1.29825e-07 
5562 1 -29.3285 21.12 1.92048 1 1.84594e-07 
5566 1 -28.4934 22.88 0.370619 1 2.45637e-07 
6153 1 -26.9447 21.12 1.20534 1 3.53186e-07 
6159 1 -25.3963 22.88 2.04014 1 5.6403e-07 
6172 1 -24.5609 21.12 0.490089 1 8.39778e-07 
6768 1 -23.0127 22.88 1.32494 1 1.16122e-06 
6766 1 -21.4652 21.12 2.16 1 2.62219e-06 
6771 1 -20.6291 22.88 0.609633 1 3.33973e-06 
7350 1 -19.0822 21.12 1.4448 1 5.34283e-06 
7356 1 -17.5363 22.88 2.28047 1 2.09953e-05 
7375 1 -16.6992 21.12 0.72937 1 1.57294e-05 
7974 1 -15.155 22.88 1.56535 1 4.12554e-05 
7971 1 -14.3158 21.12 0.0133665 1 6.18219e-05 
7972 1 -13.6129 21.12 2.40242 1 0.000259529 
7977 1 -12.7743 22.88 0.849449 1 0.000104146 
8556 1 -11.2373 21.12 1.68738 1 0.000772244 
8562 1 -9.69994 22.88 2.5269 1 0.00263823 
8582 1 -10.3936 22.88 0.131586 1 0.000402177 
8581 1 -8.86644 21.12 0.970438 1 0.00286166 
9180 1 -7.3408 22.88 1.81356 1 0.0145477 
9177 1 -6.50322 21.12 0.250054 1 0.0140499 
9183 1 -5.01157 22.88 1.10566 1 0.133249 
9762 1 -3.34781 21.12 1.92911 5 0.910647 
9788 1 -2.74458 22.88 0.427927 5 3.66843 
9787 1 -0.172442 21.12 1.57843 5 5.20548 
11724 1 -0.552583 22.88 0.00402183 5 8.15065 
13588 2 1.61545 22.88 0.762074 1 0.394405 
13592 2 2.34117 21.12 2.29578 1 0.064041 
14179 2 3.9318 22.88 1.45994 1 0.0262777 
14182 2 5.45288 21.12 0.607621 1 0.00327313 
14202 2 6.29693 22.88 2.16342 1 0.00273584 
14789 2 7.83451 21.12 1.32161 1 0.000443957 
14787 2 9.37563 22.88 0.48502 1 0.000414342 
14792 2 10.2192 21.12 2.03639 1 7.38886e-05 
15385 2 11.765 22.88 1.20153 1 0.000113781 
15388 2 13.3149 21.12 0.368189 1 0.000120407 
15408 2 14.1524 22.88 1.91786 1 3.95801e-05 
15995 2 15.7026 21.12 1.0843 1 4.56365e-05 
15993 2 17.2543 22.88 0.250998 1 2.73451e-05 
15998 2 18.0891 21.12 1.80014 1 1.9246e-05 
16591 2 19.6403 22.88 0.966518 1 1.21337e-05 
16616 2 20.4748 21.12 2.51578 1 8.76024e-06 
16594 2 21.1919 21.12 0.132865 1 4.84233e-06 
16614 2 22.0257 22.88 1.68198 1 5.62977e-06 
13575 2 25.1278 22.88 0.0142022 1 8.14935e-07 
17196 2 24.4107 22.88 2.39741 1 2.69141e-06 
17198 2 23.5768 21.12 0.848158 1 2.40049e-06 
17200 2 25.9614 21.12 1.56342 1 1.20995e-06 
17 4 -76.5306 24.64 0.489756 5 18.5856 
119 4 -73.4313 24.64 2.15859 1 5.9948e-16 
298 4 -71.0473 24.64 1.44337 1 1.00126e-15 
321 4 -68.6632 24.64 0.72816 1 6.54551e-09 
595 1 -66.2792 24.64 0.012894 1 2.17407e-09 
596 1 -65.564 24.64 2.39692 1 6.80821e-09 
937 1 -63.1799 24.64 1.68166 1 1.2471e-08 
960 1 -60.7959 24.64 0.966438 1 7.04291e-09 
1405 1 -58.4119 24.64 0.25119 1 4.54552e-09 
1927 1 -55.3127 24.64 1.91996 1 1.70659e-09 
1950 1 -52.9287 24.64 1.20469 1 2.70544e-09 
2539 1 -50.5446 24.64 0.489414 1 6.76392e-09 
3124 1 -47.4455 24.64 2.1582 1 1.42575e-08 
3153 1 -45.0615 24.64 1.44298 1 1.4458e-08 
3745 1 -42.6774 24.64 0.72774 1 3.09326e-08 
3761 1 -40.2933 24.64 0.0125142 1 5.96856e-08 
4330 1 -39.5786 24.64 2.39669 1 3.67223e-08 
4359 1 -37.1946 24.64 1.68151 1 4.91629e-08 
4951 1 -34.8105 24.64 0.96634 1 7.10545e-08 
4967 1 -32.4265 24.64 0.251176 1 1.25069e-07 
5565 1 -29.3285 24.64 1.92048 1 1.84594e-07 
6157 1 -26.9447 24.64 1.20534 1 3.53186e-07 
6173 1 -24.5609 24.64 0.490089 1 8.39778e-07 
6770 1 -21.4652 24.64 2.16 1 2.62219e-06 
7354 1 -19.0822 24.64 1.4448 1 5.34283e-06 
7377 1 -16.6992 24.64 0.72937 1 1.57294e-05 
7975 1 -14.3158 24.64 0.0133665 1 6.18219e-05 
7976 1 -13.6129 24.64 2.40242 1 0.000259529 
8560 1 -11.2373 24.64 1.68738 1 0.000772244 
8583 1 -8.86644 24.64 0.970438 1 0.00286166 
9181 1 -6.50322 24.64 0.250054 1 0.0140499 
9766 1 -3.34781 24.64 1.92911 5 0.910647 
9789 1 -0.172442 24.64 1.57843 5 5.20548 
13589 2 2.34117 24.64 2.29578 1 0.064041 
14180 2 5.45288 24.64 0.607621 1 0.00327313 
14785 2 7.83451 24.64 1.32161 1 0.000443957 
14788 2 10.2192 24.64 2.03639 1 7.38886e-05 
15386 2 13.3149 24.64 0.368189 1 0.000120407 
15991 2 15.7026 24.64 1.0843 1 4.56365e-05 
15994 2 18.0891 24.64 1.80014 1 1.9246e-05 
16612 2 20.4748 24.64 2.51578 1 8.76024e-06 
16592 2 21.1919 24.64 0.132865 1 4.84233e-06 
17195 2 23.5768 24.64 0.848158 1 2.40049e-06 
17197 2 25.9614 24.64 1.56342 1 1.20995e-06 
8 4 -77.365 26.4 2.03938 5 30.976 
18 4 -76.5306 28.16 0.489756 5 18.5856 
121 4 -74.981 26.4 1.32417 1 1.20138e-15 
123 4 -73.4313 28.16 2.15859 1 5.9948e-16 
124 4 -72.5969 26.4 0.608958 1 5.0056e-16 
302 4 -71.0473 28.16 1.44337 1 1.00126e-15 
304 4 -69.4977 26.4 2.27779 1 2.279e-09 
323 4 -68.6632 28.16 0.72816 1 6.54551e-09 
598 1 -67.1136 26.4 1.56254 1 7.59142e-10 
599 1 -66.2792 28.16 0.012894 1 2.17407e-09 
600 1 -65.564 28.16 2.39692 1 6.80821e-09 