ITEM: TIMESTEP
0
ITEM: NUMBER OF ATOMS
17784
ITEM: BOX BOUNDS ss pp pp
-66.6479 116.76
0 31.68
0 33.3937
ITEM: ATOMS id type x y z c_cna c_csd 
8 4 -65.3492 1.75595 0.554771 5 12.3904 
13 4 -62.9374 1.16929 0.369251 1 8.99204e-16 
72 4 -61.6388 0.58262 2.40997 1 8.02208e-16 
73 4 -60.5256 0.58262 0.183731 1 6.02408e-16 
74 4 -59.9691 2.34262 1.85341 1 1.4007e-15 
204 4 -57.5573 1.75595 1.66789 1 6.87128e-08 
210 1 -55.1455 1.16942 1.48252 1 5.67591e-09 
451 1 -52.7337 0.582879 1.29715 1 2.1591e-09 
456 1 -51.064 2.34297 0.740715 1 7.98056e-09 
770 1 -48.6522 1.75645 0.555414 1 4.99592e-09 
772 1 -46.2404 1.16992 0.370122 1 6.69872e-09 
1158 1 -44.9417 0.583344 2.41096 1 3.01837e-09 
1165 1 -43.8286 0.583422 0.184811 1 3.47966e-09 
1163 1 -43.272 2.34346 1.85454 1 2.62375e-09 
1552 1 -40.8602 1.75697 1.6692 1 7.42462e-09 
1554 1 -38.4483 1.17055 1.4839 1 5.31896e-09 
1972 1 -36.0365 0.584156 1.29864 1 2.61966e-09 
1973 1 -34.3668 2.34436 0.742238 1 3.70342e-09 
2359 1 -31.9549 1.758 0.55698 1 1.04324e-08 
2364 1 -29.5431 1.17158 0.37168 1 2.89164e-08 
2780 1 -28.2444 0.585016 2.41248 1 8.01448e-09 
2781 1 -27.1313 0.585107 0.18629 1 1.84853e-09 
2782 1 -26.5747 2.34514 1.856 1 1.36516e-09 
3168 1 -24.1629 1.75867 1.67059 1 6.78269e-09 
3174 1 -21.751 1.17218 1.48518 1 1.01429e-08 
3588 1 -19.3392 0.585711 1.29977 1 7.17995e-08 
3593 1 -17.6696 2.34587 0.743278 1 2.18707e-07 
3982 1 -15.2579 1.75942 0.557875 1 1.92912e-06 
3984 1 -12.8464 1.17307 0.372452 1 1.69242e-05 
4396 1 -11.5479 0.586649 2.41315 1 6.94554e-05 
4401 1 -9.87495 2.34625 1.8572 1 0.000199746 
4402 1 -9.13793 0.00059091 2.22741 1 0.000621826 
4403 1 -10.4355 0.587025 0.186962 1 0.000142576 
4404 1 -8.02642 0.00146147 0.00158782 1 0.00119052 
4792 1 -7.45939 1.75898 1.67376 1 0.001396 
4794 1 -5.03756 1.16709 1.49463 1 0.0111807 
5212 1 -2.57701 0.582292 1.31755 5 0.450625 
5213 1 -0.924151 2.34286 0.771993 5 0.942917 
7783 2 0.382392 0.207106 0.940961 5 7.18242 
7785 2 1.68826 2.34333 0.772073 5 0.941722 
7787 2 3.34118 0.583057 1.31766 5 0.449438 
8203 2 5.8016 1.16801 1.49489 1 0.0111618 
8207 2 8.22344 1.75998 1.67414 1 0.00139974 
8593 2 8.79051 0.00248262 0.0020196 1 0.00119105 
8594 2 10.639 2.34737 1.85777 1 0.000200441 
8595 2 11.1996 0.5882 0.187587 1 0.000142654 
8596 2 9.90201 0.00167961 2.22793 1 0.000619204 
8598 2 12.312 0.587879 2.41387 1 6.8804e-05 
9013 2 13.6105 1.17439 0.373287 1 1.69229e-05 
9016 2 16.0219 1.76084 0.558874 1 1.99559e-06 
9403 2 18.4336 2.34737 0.744395 1 2.35099e-07 
9404 2 17.6914 0.000699546 1.11546 1 6.10979e-07 
9406 2 20.1032 0.587289 1.30094 1 6.59693e-08 
9824 2 22.515 1.17387 1.48642 1 9.62202e-09 
9826 2 24.9268 1.76042 1.67186 1 5.54746e-09 
9 4 -64.7926 3.51595 2.22445 5 6.1952 
11 4 -66.0913 4.10262 0.183731 5 24.7808 
65 4 -62.3809 2.92929 2.03893 1 1.2999e-15 
68 4 -63.1229 5.27595 1.66789 1 1.2e-15 
70 4 -60.7112 4.68929 1.48237 1 1.1001e-15 
207 4 -58.2994 4.10262 1.29685 1 2.38124e-08 
209 1 -55.8876 3.51606 1.11142 1 1.55456e-08 
444 1 -54.2179 5.27615 0.554979 1 8.27289e-09 
454 1 -53.4758 2.92951 0.926076 1 4.59544e-09 
455 1 -51.8061 4.68959 0.36961 1 1.08115e-08 
765 1 -50.5075 4.10299 2.41044 1 7.35607e-09 
766 1 -49.3943 4.10307 0.184297 1 2.84491e-09 
768 1 -48.0956 3.51648 2.22514 1 1.90854e-09 
1150 1 -46.4259 5.27657 1.66873 1 4.60162e-09 
1161 1 -45.6838 2.92995 2.03984 1 6.05257e-09 
1162 1 -44.0141 4.69008 1.48343 1 3.38761e-09 
1545 1 -41.6023 4.10358 1.29811 1 7.85637e-09 
1553 1 -39.1905 3.51713 1.11279 1 7.61003e-09 
1965 1 -36.7786 2.93075 0.927503 1 4.65421e-09 
1968 1 -37.5207 5.27731 0.55639 1 3.75015e-09 
1970 1 -35.1089 4.69093 0.371133 1 2.62955e-09 
2351 1 -33.8102 4.10444 2.41198 1 3.59586e-09 
2360 1 -31.3984 3.51806 2.22672 1 1.2492e-08 
2362 1 -32.697 4.10456 0.185856 1 2.60587e-09 
2363 1 -30.2852 3.51817 0.000582479 1 2.86312e-08 
2773 1 -28.9865 2.93162 2.04141 1 2.64359e-08 
2776 1 -29.7286 5.27823 1.67031 1 3.08208e-08 
2778 1 -27.3168 4.69175 1.48492 1 4.89549e-09 
3171 1 -24.905 4.10528 1.29951 1 4.60225e-09 
3173 1 -22.4931 3.5188 1.1141 1 5.46092e-09 
3581 1 -20.8234 5.27893 0.557606 1 1.76471e-08 
3591 1 -20.0813 2.93233 0.92868 1 2.94813e-08 
3592 1 -18.4115 4.69244 0.372214 1 1.30774e-07 
3977 1 -17.1128 4.10587 2.41299 1 4.70031e-07 
3978 1 -15.9996 4.10595 0.186856 1 8.58879e-07 
3980 1 -14.7008 3.51934 2.22763 1 3.55169e-06 
3983 1 -13.5876 3.51942 0.00155147 1 5.97294e-06 
4388 1 -13.0314 5.27945 1.67094 1 8.96081e-06 
4399 1 -12.2884 2.93278 2.04229 1 2.71379e-05 
4400 1 -10.6191 4.69282 1.48509 1 8.80486e-05 
4785 1 -8.20545 4.10637 1.29881 1 0.000859172 
4793 1 -5.78983 3.51843 1.11453 1 0.00798622 
5205 1 -3.37343 2.92019 0.940129 1 0.0587448 
5210 1 -1.87736 4.73443 0.392457 5 1.25325 
5587 1 -0.726184 4.16266 2.48323 5 7.61889 
7401 2 0.381905 4.29872 0.296029 5 6.57959 
7403 2 1.48999 4.16319 2.48322 5 7.61932 
7784 2 2.64108 4.73523 0.392542 5 1.24843 
7788 2 4.13743 2.92109 0.940295 1 0.0586029 
8205 2 6.55386 3.51938 1.11483 1 0.00797357 
8208 2 8.96954 4.1074 1.29928 1 0.000855494 
8600 2 11.3832 4.69401 1.48575 1 8.71234e-05 
8602 2 13.0525 2.93406 2.04308 1 2.76685e-05 
9014 2 14.3517 3.52077 0.00244643 1 5.84077e-06 
9015 2 15.4649 3.52073 2.22859 1 3.70941e-06 
9017 2 16.7637 4.10739 0.187886 1 7.76513e-07 
9024 2 17.8769 4.10734 2.41409 1 4.99141e-07 
9408 2 19.1756 4.69398 0.373365 1 1.17745e-07 
9410 2 20.8454 2.93394 0.929895 1 3.27856e-08 
9823 2 23.2571 3.52051 1.11536 1 6.24817e-09 
5 4 -65.5347 5.86262 1.85341 5 18.5856 
53 4 -63.865 7.62262 1.29685 1 1.0002e-15 
69 4 -61.4533 7.03595 1.11133 1 6.00101e-16 
196 4 -59.0415 6.44929 0.925812 1 4.66138e-09 
208 1 -56.6297 5.86266 0.740344 1 3.50972e-08 
428 1 -56.0731 7.62268 2.41005 1 2.33073e-08 
447 1 -54.96 7.62276 0.183889 1 2.9477e-09 
445 1 -53.6613 7.03617 2.2247 1 1.37455e-08 
754 1 -51.2495 6.4496 2.03934 1 2.31293e-08 
767 1 -48.8377 5.8631 1.85404 1 4.92471e-09 
1153 1 -47.168 7.6232 1.29763 1 4.13697e-09 
1155 1 -44.7562 7.03669 1.11232 1 1.98253e-09 
1548 1 -42.3444 6.4502 0.927001 1 6.84421e-09 
1550 1 -39.9326 5.86372 0.741676 1 1.62678e-08 
1955 1 -39.376 7.62377 2.41141 1 1.07854e-08 
1956 1 -38.2628 7.62389 0.185287 1 6.65095e-09 
1958 1 -36.9641 7.03737 2.22613 1 5.72803e-09 
1969 1 -35.851 7.03751 5.74781e-06 1 2.34643e-09 
2354 1 -34.5523 6.45101 2.04087 1 1.74074e-09 
2356 1 -32.1405 5.86463 1.85559 1 5.22767e-09 
2761 1 -30.4707 7.62482 1.2992 1 1.50216e-08 
2777 1 -28.0589 7.03837 1.11386 1 1.75544e-08 
3160 1 -25.6471 6.45188 0.928444 1 2.50019e-09 
3172 1 -23.2352 5.8654 0.743022 1 3.04789e-09 
3565 1 -22.6787 7.62545 2.41272 1 5.66161e-09 
3584 1 -21.5655 7.62554 0.186522 1 2.1906e-08 
3582 1 -20.2669 7.03898 2.2273 1 2.03561e-08 
3585 1 -19.1537 7.03904 0.00111773 1 1.39121e-07 
3966 1 -17.8551 6.4525 2.04189 1 1.12076e-07 
3979 1 -15.4433 5.86601 1.85646 1 9.48252e-07 
4391 1 -13.7743 7.62639 1.30016 1 2.2391e-05 
4393 1 -11.364 7.04033 1.11487 1 0.000190135 
4788 1 -8.95629 6.45515 0.929172 1 0.00165693 
4790 1 -6.5557 5.8743 0.741853 1 0.0153558 
5195 1 -5.95755 7.62328 2.40694 1 0.0240015 
5196 1 -4.83498 7.62692 0.17715 1 0.0476104 
5198 1 -3.49998 7.03814 2.19736 1 0.217242 
5208 1 -4.18237 5.30228 0.554267 1 0.151403 
5588 1 -0.973971 6.47595 1.96109 5 2.09218 
7409 2 1.73835 6.47655 1.96149 5 2.08523 
7793 2 4.26413 7.03903 2.19771 1 0.21649 
7794 2 4.94628 5.30316 0.554523 1 0.150796 
7795 2 5.59916 7.62779 0.177499 1 0.0473984 
7810 2 6.72168 7.62422 2.40732 1 0.0239125 
8204 2 7.31975 5.87523 0.742247 1 0.0152921 
8215 2 9.72038 6.45622 0.929707 1 0.00164861 
8599 2 12.1281 7.04157 1.11557 1 0.000189093 
8603 2 13.7955 5.28078 1.67179 1 8.88486e-06 
8614 2 14.5384 7.62774 1.30106 1 2.23095e-05 
9022 2 16.2073 5.86741 1.85747 1 9.40579e-07 
9025 2 18.6191 6.454 2.04302 1 1.09532e-07 
9407 2 19.9177 7.04061 0.00228557 1 1.53667e-07 
9411 2 21.5874 5.28057 0.558848 1 2.04891e-08 
9420 2 22.3295 7.62721 0.187775 1 2.58185e-08 
9421 2 21.0309 7.04059 2.22853 1 1.61451e-08 
9424 2 23.4427 7.62716 2.41399 1 5.41248e-09 
9828 2 23.9992 5.86714 0.744291 1 4.31702e-09 
4 4 -66.2768 8.20929 1.48237 5 30.976 
56 4 -64.6071 9.96929 0.925812 5 6.1952 
58 4 -62.1953 9.38262 0.740292 1 1.0006e-15 
185 4 -59.227 10.556 2.22445 1 8.99809e-16 
199 4 -59.7836 8.79595 0.554771 1 6.99806e-16 
201 4 -57.3718 8.20929 0.369251 1 8.85451e-08 
431 4 -56.8152 9.96929 2.03893 1 1.66586e-07 
433 1 -54.4034 9.38279 1.8536 1 6.67926e-09 
757 1 -51.9916 8.79625 1.66824 1 7.68135e-09 
758 1 -50.3219 10.5563 1.11182 1 2.32433e-09 
759 1 -49.5798 8.20971 1.48293 1 5.59949e-09 
1134 1 -47.9101 9.96982 0.926511 1 3.83095e-09 
1154 1 -45.4983 9.38331 0.741228 1 3.15357e-09 
1534 1 -43.0865 8.7968 0.555912 1 5.54462e-09 
1535 1 -42.5299 10.5568 2.22563 1 1.87079e-09 
1549 1 -40.6746 8.21032 0.370566 1 1.31403e-08 
1936 1 -40.1181 9.97037 2.0403 1 1.33297e-08 
1957 1 -37.7062 9.38396 1.85503 1 3.59632e-09 
2339 1 -35.2944 8.79758 1.66976 1 1.96625e-09 
2344 1 -33.6247 10.5578 1.11337 1 2.59372e-09 
2355 1 -32.8826 8.21121 1.48448 1 1.87408e-09 
2764 1 -31.2128 9.97141 0.928086 1 8.5373e-09 
2766 1 -28.801 9.38498 0.74276 1 9.74452e-09 
3163 1 -26.3892 8.7985 0.557371 1 4.28756e-09 
3149 1 -25.8326 10.5585 2.22708 1 2.7613e-09 
3164 1 -24.7194 10.5586 0.000883831 1 1.86257e-09 
3165 1 -23.9773 8.212 0.371938 1 7.63766e-09 
3568 1 -23.4208 9.97206 2.04166 1 8.90237e-09 
3570 1 -21.009 9.38559 1.85625 1 4.57636e-08 
3969 1 -18.5972 8.79914 1.67086 1 3.33717e-07 
3970 1 -16.9273 10.5592 1.11439 1 6.0658e-07 
3971 1 -16.1856 8.21271 1.48549 1 2.64248e-06 
4372 1 -14.5154 9.97272 0.929038 1 5.66111e-06 
4392 1 -12.103 9.38618 0.743778 1 5.17991e-05 
4774 1 -9.68943 8.79938 0.558562 1 0.000478921 
4789 1 -7.27155 8.2116 0.372196 1 0.00464816 
5176 1 -6.73167 9.97464 2.03988 1 0.0055112 
5197 1 -4.33165 9.39436 1.84609 1 0.049588 
5578 1 -1.94389 8.84062 1.65711 5 1.09969 
7407 2 0.381976 8.46524 1.5989 5 6.88862 
7410 2 2.70783 8.84141 1.65727 5 1.09582 
7808 2 5.09571 9.39522 1.84639 1 0.0494675 
7811 2 7.49573 9.97561 2.04025 1 0.00549863 
8213 2 8.03567 8.21259 0.372618 1 0.0046255 
8216 2 10.4535 8.8005 0.55914 1 0.00047564 
8612 2 12.8671 9.38746 0.744548 1 5.10376e-05 
8615 2 15.2795 9.97411 0.929991 1 5.53742e-06 
9021 2 16.9497 8.21415 1.48652 1 2.65143e-06 
9036 2 19.3613 8.80068 1.672 1 3.17391e-07 
9419 2 21.773 9.38724 1.85748 1 4.39828e-08 
9439 2 24.1848 9.9738 2.04293 1 9.96276e-09 
9827 2 24.7413 8.21377 0.373225 1 6.90474e-09 
34 4 -65.3492 12.316 0.554771 5 12.3904 
57 4 -62.9374 11.7293 0.369251 1 9.00804e-16 
182 4 -61.6388 11.1426 2.40997 1 7.99005e-16 
183 4 -60.5256 11.1426 0.183731 1 5.99205e-16 
184 4 -59.9691 12.9026 1.85341 1 1.3999e-15 
408 4 -57.5573 12.316 1.66789 1 6.87128e-08 
432 1 -55.1455 11.7294 1.48252 1 5.67592e-09 
738 1 -52.7337 11.1429 1.29715 1 2.1591e-09 
743 1 -51.064 12.903 0.740715 1 7.98056e-09 
1137 1 -48.6522 12.3165 0.555414 1 4.99591e-09 
1139 1 -46.2404 11.7299 0.370122 1 6.69872e-09 
1514 1 -44.9417 11.1433 2.41096 1 3.01837e-09 
1537 1 -43.8286 11.1434 0.184811 1 3.47966e-09 
1519 1 -43.272 12.9035 1.85454 1 2.62375e-09 
1939 1 -40.8602 12.317 1.6692 1 7.42463e-09 
1941 1 -38.4483 11.7305 1.4839 1 5.31895e-09 
2342 1 -36.0365 11.1442 1.29864 1 2.61966e-09 
2343 1 -34.3668 12.9044 0.742238 1 3.7034e-09 
2742 1 -31.9549 12.318 0.55698 1 1.04324e-08 
2765 1 -29.5431 11.7316 0.37168 1 2.89164e-08 
3146 1 -28.2444 11.145 2.41248 1 8.01448e-09 
3147 1 -27.1313 11.1451 0.18629 1 1.84853e-09 
3148 1 -26.5747 12.9051 1.856 1 1.36516e-09 
3545 1 -24.1629 12.3187 1.67059 1 6.78271e-09 
3569 1 -21.751 11.7322 1.48518 1 1.01429e-08 
3950 1 -19.3392 11.1457 1.29977 1 7.17996e-08 
3955 1 -17.6696 12.9059 0.743278 1 2.18707e-07 
4375 1 -15.2579 12.3194 0.557875 1 1.92912e-06 
4377 1 -12.8464 11.7331 0.372452 1 1.69242e-05 
4754 1 -11.5479 11.1466 2.41315 1 6.94554e-05 
4759 1 -9.87495 12.9062 1.8572 1 0.000199746 
4775 1 -9.13793 10.5606 2.22741 1 0.000621826 
4777 1 -10.4355 11.147 0.186962 1 0.000142576 
4778 1 -8.02642 10.5615 0.00158782 1 0.00119052 
5179 1 -7.45939 12.319 1.67376 1 0.001396 
5181 1 -5.03756 11.7271 1.49463 1 0.0111807 
5581 1 -2.57701 11.1423 1.31755 5 0.450625 
5582 1 -0.924151 12.9029 0.771993 5 0.942917 
7406 2 0.382392 10.7671 0.940961 5 7.18242 
7423 2 1.68826 12.9033 0.772073 5 0.941722 
7425 2 3.34118 11.1431 1.31766 5 0.449438 
7807 2 5.8016 11.728 1.49489 1 0.0111618 
7830 2 8.22344 12.32 1.67414 1 0.00139974 
8212 2 8.79051 10.5625 0.0020196 1 0.00119105 
8228 2 10.639 12.9074 1.85777 1 0.000200441 
8229 2 11.1996 11.1482 0.187587 1 0.000142654 
8230 2 9.90201 10.5617 2.22793 1 0.000619204 
8233 2 12.312 11.1479 2.41387 1 6.8804e-05 
8611 2 13.6105 11.7344 0.373287 1 1.69229e-05 
8633 2 16.0219 12.3208 0.558874 1 1.99559e-06 
9033 2 18.4336 12.9074 0.744395 1 2.35099e-07 
9034 2 17.6914 10.5607 1.11546 1 6.10979e-07 
9037 2 20.1032 11.1473 1.30094 1 6.59694e-08 
9437 2 22.515 11.7339 1.48642 1 9.62202e-09 
9440 2 24.9268 12.3204 1.67186 1 5.54746e-09 
35 4 -64.7926 14.076 2.22445 5 6.1952 
37 4 -66.0913 14.6626 0.183731 5 24.7808 
159 4 -62.3809 13.4893 2.03893 1 1.2999e-15 
162 4 -63.1229 15.836 1.66789 1 1.2e-15 
164 4 -60.7112 15.2493 1.48237 1 1.1001e-15 
411 4 -58.2994 14.6626 1.29685 1 2.38124e-08 
413 1 -55.8876 14.0761 1.11142 1 1.55456e-08 
715 1 -54.2179 15.8362 0.554979 1 8.27293e-09 
741 1 -53.4758 13.4895 0.926076 1 4.59544e-09 
742 1 -51.8061 15.2496 0.36961 1 1.08116e-08 
1112 1 -50.5075 14.663 2.41044 1 7.35607e-09 
1113 1 -49.3943 14.6631 0.184297 1 2.84493e-09 
1115 1 -48.0956 14.0765 2.22514 1 1.90854e-09 
1490 1 -46.4259 15.8366 1.66873 1 4.60162e-09 
1517 1 -45.6838 13.49 2.03984 1 6.05256e-09 
1518 1 -44.0141 15.2501 1.48343 1 3.38762e-09 
1912 1 -41.6023 14.6636 1.29811 1 7.85635e-09 
1940 1 -39.1905 14.0771 1.11279 1 7.61005e-09 
2319 1 -36.7786 13.4907 0.927503 1 4.65421e-09 
2322 1 -37.5207 15.8373 0.55639 1 3.75015e-09 
2324 1 -35.1089 15.2509 0.371133 1 2.62956e-09 
2714 1 -33.8102 14.6644 2.41198 1 3.59585e-09 
2743 1 -31.3984 14.0781 2.22672 1 1.2492e-08 
2745 1 -32.697 14.6646 0.185856 1 2.60587e-09 
2746 1 -30.2852 14.0782 0.000582479 1 2.86312e-08 
3123 1 -28.9865 13.4916 2.04141 1 2.64359e-08 
3126 1 -29.7286 15.8382 1.67031 1 3.08207e-08 
3128 1 -27.3168 15.2518 1.48492 1 4.89549e-09 
3548 1 -24.905 14.6653 1.29951 1 4.60225e-09 
3550 1 -22.4931 14.0788 1.1141 1 5.46092e-09 
3927 1 -20.8234 15.8389 0.557606 1 1.76471e-08 
3953 1 -20.0813 13.4923 0.92868 1 2.94812e-08 
3954 1 -18.4115 15.2524 0.372214 1 1.30774e-07 
4350 1 -17.1128 14.6659 2.41299 1 4.70031e-07 
4351 1 -15.9996 14.6659 0.186856 1 8.58879e-07 
4353 1 -14.7008 14.0793 2.22763 1 3.55169e-06 
4376 1 -13.5876 14.0794 0.00155147 1 5.97294e-06 
4730 1 -13.0314 15.8395 1.67094 1 8.96081e-06 
4757 1 -12.2884 13.4928 2.04229 1 2.71379e-05 
4758 1 -10.6191 15.2528 1.48509 1 8.80486e-05 
5152 1 -8.20545 14.6664 1.29881 1 0.000859172 
5180 1 -5.78983 14.0784 1.11453 1 0.00798622 
5558 1 -3.37343 13.4802 0.940129 1 0.0587448 
5563 1 -1.87736 15.2944 0.392457 5 1.25325 
5933 1 -0.726184 14.7227 2.48323 5 7.61889 
7038 2 0.381905 14.8587 0.296029 5 6.57959 
7040 2 1.48999 14.7232 2.48322 5 7.61932 
7422 2 2.64108 15.2952 0.392542 5 1.24843 
7426 2 4.13743 13.4811 0.940295 1 0.0586029 
7828 2 6.55386 14.0794 1.11483 1 0.00797357 
7831 2 8.96954 14.6674 1.29928 1 0.000855494 
8250 2 11.3832 15.254 1.48575 1 8.71234e-05 
8252 2 13.0525 13.4941 2.04308 1 2.76685e-05 
8631 2 14.3517 14.0808 0.00244643 1 5.84077e-06 
8632 2 15.4649 14.0807 2.22859 1 3.70941e-06 
8634 2 16.7637 14.6674 0.187886 1 7.76513e-07 
8661 2 17.8769 14.6673 2.41409 1 4.99141e-07 
9054 2 19.1756 15.254 0.373365 1 1.17745e-07 
9056 2 20.8454 13.4939 0.929895 1 3.27857e-08 
9436 2 23.2571 14.0805 1.11536 1 6.24816e-09 
19 4 -65.5347 16.4226 1.85341 5 18.5856 
131 4 -63.865 18.1826 1.29685 1 1.0002e-15 
163 4 -61.4533 17.596 1.11133 1 6.00101e-16 
380 4 -59.0415 17.0093 0.925812 1 4.66138e-09 
412 1 -56.6297 16.4227 0.740344 1 3.50972e-08 
683 1 -56.0731 18.1827 2.41005 1 2.33073e-08 
718 1 -54.96 18.1828 0.183889 1 2.94771e-09 
716 1 -53.6613 17.5962 2.2247 1 1.37455e-08 
1081 1 -51.2495 17.0096 2.03934 1 2.31292e-08 
1114 1 -48.8377 16.4231 1.85404 1 4.92471e-09 
1493 1 -47.168 18.1832 1.29763 1 4.13696e-09 
1495 1 -44.7562 17.5967 1.11232 1 1.98253e-09 
1915 1 -42.3444 17.0102 0.927001 1 6.8442e-09 
1917 1 -39.9326 16.4237 0.741676 1 1.62678e-08 
2293 1 -39.376 18.1838 2.41141 1 1.07854e-08 
2294 1 -38.2628 18.1839 0.185287 1 6.65092e-09 
2296 1 -36.9641 17.5974 2.22613 1 5.72801e-09 
2323 1 -35.851 17.5975 5.74781e-06 1 2.34644e-09 
2717 1 -34.5523 17.011 2.04087 1 1.74075e-09 
2719 1 -32.1405 16.4246 1.85559 1 5.22767e-09 
3095 1 -30.4707 18.1848 1.2992 1 1.50216e-08 
3127 1 -28.0589 17.5984 1.11386 1 1.75545e-08 
3517 1 -25.6471 17.0119 0.928444 1 2.50019e-09 
3549 1 -23.2352 16.4254 0.743022 1 3.04789e-09 
3895 1 -22.6787 18.1854 2.41272 1 5.66161e-09 
3930 1 -21.5655 18.1855 0.186522 1 2.1906e-08 
3928 1 -20.2669 17.599 2.2273 1 2.03561e-08 
3931 1 -19.1537 17.599 0.00111773 1 1.39121e-07 
4319 1 -17.8551 17.0125 2.04189 1 1.12076e-07 
4352 1 -15.4433 16.426 1.85646 1 9.48252e-07 
4733 1 -13.7743 18.1864 1.30016 1 2.2391e-05 
4735 1 -11.364 17.6003 1.11487 1 0.000190135 
5155 1 -8.95629 17.0151 0.929172 1 0.00165693 
5157 1 -6.5557 16.4343 0.741853 1 0.0153558 
5532 1 -5.95755 18.1833 2.40694 1 0.0240015 
5533 1 -4.83498 18.1869 0.17715 1 0.0476104 
5535 1 -3.49998 17.5981 2.19736 1 0.217242 
5561 1 -4.18237 15.8623 0.554267 1 0.151403 
5934 1 -0.973971 17.0359 1.96109 5 2.09218 
7064 2 1.73835 17.0365 1.96149 5 2.08523 
7447 2 4.26413 17.599 2.19771 1 0.21649 
7448 2 4.94628 15.8632 0.554523 1 0.150796 
7449 2 5.59916 18.1878 0.177499 1 0.0473984 
7480 2 6.72168 18.1842 2.40732 1 0.0239125 
7827 2 7.31975 16.4352 0.742247 1 0.0152921 
7858 2 9.72038 17.0162 0.929707 1 0.00164861 
8249 2 12.1281 17.6016 1.11557 1 0.000189093 
8253 2 13.7955 15.8408 1.67179 1 8.88486e-06 
8280 2 14.5384 18.1877 1.30106 1 2.23095e-05 
8659 2 16.2073 16.4274 1.85747 1 9.40579e-07 
8662 2 18.6191 17.014 2.04302 1 1.09532e-07 
9053 2 19.9177 17.6006 0.00228557 1 1.53667e-07 
9057 2 21.5874 15.8406 0.558848 1 2.04891e-08 
9082 2 22.3295 18.1872 0.187775 1 2.58185e-08 
9083 2 21.0309 17.6006 2.22853 1 1.61451e-08 
9086 2 23.4427 18.1872 2.41399 1 5.41248e-09 
9461 2 23.9992 16.4271 0.744291 1 4.31702e-09 
18 4 -66.2768 18.7693 1.48237 5 30.976 
134 4 -64.6071 20.5293 0.925812 5 6.1952 
136 4 -62.1953 19.9426 0.740292 1 9.998e-16 
349 4 -59.227 21.116 2.22445 1 8.99801e-16 
383 4 -59.7836 19.356 0.554771 1 6.99801e-16 
385 4 -57.3718 18.7693 0.369251 1 8.85452e-08 
686 4 -56.8152 20.5293 2.03893 1 1.66586e-07 
688 1 -54.4034 19.9428 1.8536 1 6.67927e-09 
1084 1 -51.9916 19.3563 1.66824 1 7.68135e-09 
1085 1 -50.3219 21.1163 1.11182 1 2.32433e-09 
1086 1 -49.5798 18.7697 1.48293 1 5.59948e-09 
1458 1 -47.9101 20.5298 0.926511 1 3.83095e-09 
1494 1 -45.4983 19.9433 0.741228 1 3.15357e-09 
1881 1 -43.0865 19.3568 0.555912 1 5.54461e-09 
1882 1 -42.5299 21.1168 2.22563 1 1.87079e-09 
1916 1 -40.6746 18.7703 0.370566 1 1.31403e-08 
2258 1 -40.1181 20.5304 2.0403 1 1.33297e-08 
2295 1 -37.7062 19.944 1.85503 1 3.59632e-09 
2682 1 -35.2944 19.3576 1.66976 1 1.96625e-09 
2687 1 -33.6247 21.1178 1.11337 1 2.59372e-09 
2718 1 -32.8826 18.7712 1.48448 1 1.87408e-09 
3098 1 -31.2128 20.5314 0.928086 1 8.5373e-09 
3100 1 -28.801 19.945 0.74276 1 9.74453e-09 
3520 1 -26.3892 19.3585 0.557371 1 4.28755e-09 
3486 1 -25.8326 21.1185 2.22708 1 2.7613e-09 
3521 1 -24.7194 21.1186 0.000883831 1 1.86257e-09 
3522 1 -23.9773 18.772 0.371938 1 7.63765e-09 
3898 1 -23.4208 20.5321 2.04166 1 8.90238e-09 
3900 1 -21.009 19.9456 1.85625 1 4.57636e-08 
4322 1 -18.5972 19.3591 1.67086 1 3.33717e-07 
4323 1 -16.9273 21.1192 1.11439 1 6.0658e-07 
4324 1 -16.1856 18.7727 1.48549 1 2.64248e-06 
4698 1 -14.5154 20.5327 0.929038 1 5.66111e-06 
4734 1 -12.103 19.9462 0.743778 1 5.17991e-05 
5121 1 -9.68943 19.3594 0.558562 1 0.000478921 
5156 1 -7.27155 18.7716 0.372196 1 0.00464816 
5497 1 -6.73167 20.5346 2.03988 1 0.0055112 
5534 1 -4.33165 19.9544 1.84609 1 0.049588 
5906 1 -1.94389 19.4006 1.65711 5 1.09969 
7062 2 0.381976 19.0252 1.5989 5 6.88862 
7065 2 2.70783 19.4014 1.65727 5 1.09582 
7478 2 5.09571 19.9552 1.84639 1 0.0494675 
7481 2 7.49573 20.5356 2.04025 1 0.00549863 
7856 2 8.03567 18.7726 0.372618 1 0.0046255 
7859 2 10.4535 19.3605 0.55914 1 0.00047564 
8278 2 12.8671 19.9475 0.744548 1 5.10376e-05 
8281 2 15.2795 20.5341 0.929991 1 5.53742e-06 
8658 2 16.9497 18.7742 1.48652 1 2.65143e-06 
8693 2 19.3613 19.3607 1.672 1 3.17391e-07 
9081 2 21.773 19.9472 1.85748 1 4.39828e-08 
9117 2 24.1848 20.5338 2.04293 1 9.96276e-09 
9460 2 24.7413 18.7738 0.373225 1 6.90475e-09 
99 4 -65.3492 22.876 0.554771 5 12.3904 
135 4 -62.9374 22.2893 0.369251 1 9e-16 
346 4 -61.6388 21.7026 2.40997 1 7.998e-16 
347 4 -60.5256 21.7026 0.183731 1 6e-16 
348 4 -59.9691 23.4626 1.85341 1 1.3999e-15 
647 4 -57.5573 22.876 1.66789 1 6.87128e-08 
687 1 -55.1455 22.2894 1.48252 1 5.67592e-09 
1045 1 -52.7337 21.7029 1.29715 1 2.1591e-09 
1050 1 -51.064 23.463 0.740715 1 7.98056e-09 
1461 1 -48.6522 22.8765 0.555414 1 4.99591e-09 
1463 1 -46.2404 22.2899 0.370122 1 6.69872e-09 
1841 1 -44.9417 21.7033 2.41096 1 3.01837e-09 
1884 1 -43.8286 21.7034 0.184811 1 3.47966e-09 
1846 1 -43.272 23.4635 1.85454 1 2.62375e-09 
2261 1 -40.8602 22.877 1.6692 1 7.42463e-09 
2263 1 -38.4483 22.2905 1.4839 1 5.31895e-09 
2685 1 -36.0365 21.7042 1.29864 1 2.61966e-09 
2686 1 -34.3668 23.4644 0.742238 1 3.7034e-09 
3060 1 -31.9549 22.878 0.55698 1 1.04324e-08 
3099 1 -29.5431 22.2916 0.37168 1 2.89164e-08 
3483 1 -28.2444 21.705 2.41248 1 8.01448e-09 
3484 1 -27.1313 21.7051 0.18629 1 1.84853e-09 
3485 1 -26.5747 23.4651 1.856 1 1.36516e-09 
3859 1 -24.1629 22.8787 1.67059 1 6.78271e-09 
3899 1 -21.751 22.2922 1.48518 1 1.01429e-08 
4283 1 -19.3392 21.7057 1.29977 1 7.17996e-08 
4288 1 -17.6696 23.4659 0.743278 1 2.18707e-07 
4701 1 -15.2579 22.8794 0.557875 1 1.92912e-06 
4703 1 -12.8464 22.2931 0.372452 1 1.69242e-05 
5081 1 -11.5479 21.7066 2.41315 1 6.94554e-05 
5086 1 -9.87495 23.4662 1.8572 1 0.000199746 
5122 1 -9.13793 21.1206 2.22741 1 0.000621826 
5124 1 -10.4355 21.707 0.186962 1 0.000142576 
5125 1 -8.02642 21.1215 0.00158782 1 0.00119052 
5500 1 -7.45939 22.879 1.67376 1 0.001396 
5502 1 -5.03756 22.2871 1.49463 1 0.0111807 
5909 1 -2.57701 21.7023 1.31755 5 0.450625 
5910 1 -0.924151 23.4629 0.771993 5 0.942917 
7061 2 0.382392 21.3271 0.940961 5 7.18242 
7098 2 1.68826 23.4633 0.772073 5 0.941722 
7100 2 3.34118 21.7031 1.31766 5 0.449438 
7477 2 5.8016 22.288 1.49489 1 0.0111618 
7516 2 8.22344 22.88 1.67414 1 0.00139974 
7855 2 8.79051 21.1225 0.0020196 1 0.00119105 
7891 2 10.639 23.4674 1.85777 1 0.000200441 
7892 2 11.1996 21.7082 0.187587 1 0.000142654 
7893 2 9.90201 21.1217 2.22793 1 0.000619204 
7896 2 12.312 21.7079 2.41387 1 6.8804e-05 
8277 2 13.6105 22.2944 0.373287 1 1.69229e-05 
8315 2 16.0219 22.8808 0.558874 1 1.99559e-06 
8690 2 18.4336 23.4674 0.744395 1 2.35099e-07 
8691 2 17.6914 21.1207 1.11546 1 6.10979e-07 
8694 2 20.1032 21.7073 1.30094 1 6.59694e-08 
9115 2 22.515 22.2939 1.48642 1 9.62202e-09 
9118 2 24.9268 22.8804 1.67186 1 5.54746e-09 
100 4 -64.7926 24.636 2.22445 5 6.1952 
102 4 -66.0913 25.2226 0.183731 5 24.7808 
303 4 -62.3809 24.0493 2.03893 1 1.2999e-15 
306 4 -63.1229 26.396 1.66789 1 1.2e-15 
308 4 -60.7112 25.8093 1.48237 1 1.1001e-15 
650 4 -58.2994 25.2226 1.29685 1 2.38124e-08 
652 1 -55.8876 24.6361 1.11142 1 1.55456e-08 
1002 1 -54.2179 26.3962 0.554979 1 8.27293e-09 
1048 1 -53.4758 24.0495 0.926076 1 4.59544e-09 
1049 1 -51.8061 25.8096 0.36961 1 1.08116e-08 
1420 1 -50.5075 25.223 2.41044 1 7.35607e-09 
1421 1 -49.3943 25.2231 0.184297 1 2.84493e-09 
1423 1 -48.0956 24.6365 2.22514 1 1.90854e-09 
1797 1 -46.4259 26.3966 1.66873 1 4.60162e-09 
1844 1 -45.6838 24.05 2.03984 1 6.05256e-09 
1845 1 -44.0141 25.8101 1.48343 1 3.38762e-09 
2218 1 -41.6023 25.2236 1.29811 1 7.85635e-09 
2262 1 -39.1905 24.6371 1.11279 1 7.61005e-09 
2642 1 -36.7786 24.0507 0.927503 1 4.65421e-09 
2645 1 -37.5207 26.3973 0.55639 1 3.75015e-09 
2647 1 -35.1089 25.8109 0.371133 1 2.62956e-09 
3016 1 -33.8102 25.2244 2.41198 1 3.59585e-09 
3061 1 -31.3984 24.6381 2.22672 1 1.2492e-08 
3063 1 -32.697 25.2246 0.185856 1 2.60587e-09 
3064 1 -30.2852 24.6382 0.000582479 1 2.86312e-08 
3440 1 -28.9865 24.0516 2.04141 1 2.64359e-08 
3443 1 -29.7286 26.3982 1.67031 1 3.08207e-08 
3445 1 -27.3168 25.8118 1.48492 1 4.89549e-09 
3862 1 -24.905 25.2253 1.29951 1 4.60225e-09 
3864 1 -22.4931 24.6388 1.1141 1 5.46092e-09 
4240 1 -20.8234 26.3989 0.557606 1 1.76471e-08 
4286 1 -20.0813 24.0523 0.92868 1 2.94812e-08 
4287 1 -18.4115 25.8124 0.372214 1 1.30774e-07 
4660 1 -17.1128 25.2259 2.41299 1 4.70031e-07 
4661 1 -15.9996 25.2259 0.186856 1 8.58879e-07 
4663 1 -14.7008 24.6393 2.22763 1 3.55169e-06 
4702 1 -13.5876 24.6394 0.00155147 1 5.97294e-06 
5037 1 -13.0314 26.3995 1.67094 1 8.96081e-06 
5084 1 -12.2884 24.0528 2.04229 1 2.71379e-05 
5085 1 -10.6191 25.8128 1.48509 1 8.80486e-05 
5457 1 -8.20545 25.2264 1.29881 1 0.000859172 
5501 1 -5.78983 24.6384 1.11453 1 0.00798622 
5866 1 -3.37343 24.0402 0.940129 1 0.0587448 
5871 1 -1.87736 25.8544 0.392457 5 1.25325 
6167 1 -0.726184 25.2827 2.48323 5 7.61889 
6780 2 0.381905 25.4187 0.296029 5 6.57959 
6782 2 1.48999 25.2832 2.48322 5 7.61932 
7097 2 2.64108 25.8552 0.392542 5 1.24843 
7101 2 4.13743 24.0411 0.940295 1 0.0586029 
7514 2 6.55386 24.6394 1.11483 1 0.00797357 
7517 2 8.96954 25.2274 1.29928 1 0.000855494 
7933 2 11.3832 25.814 1.48575 1 8.71234e-05 
7935 2 13.0525 24.0541 2.04308 1 2.76685e-05 
8313 2 14.3517 24.6408 0.00244643 1 5.84077e-06 
8314 2 15.4649 24.6407 2.22859 1 3.70941e-06 
8316 2 16.7637 25.2274 0.187886 1 7.76513e-07 
8359 2 17.8769 25.2273 2.41409 1 4.99141e-07 
8731 2 19.1756 25.814 0.373365 1 1.17745e-07 
8733 2 20.8454 24.0539 0.929895 1 3.27857e-08 
9114 2 23.2571 24.6405 1.11536 1 6.24816e-09 
82 4 -65.5347 26.9826 1.85341 5 18.5856 
258 4 -63.865 28.7426 1.29685 1 1.0002e-15 
307 4 -61.4533 28.156 1.11133 1 6.00101e-16 
604 4 -59.0415 27.5693 0.925812 1 4.66138e-09 
651 1 -56.6297 26.9827 0.740344 1 3.50972e-08 
952 1 -56.0731 28.7427 2.41005 1 2.33073e-08 
1005 1 -54.96 28.7428 0.183889 1 2.94771e-09 
1003 1 -53.6613 28.1562 2.2247 1 1.37455e-08 
1374 1 -51.2495 27.5696 2.03934 1 2.31292e-08 
1422 1 -48.8377 26.9831 1.85404 1 4.92471e-09 
1800 1 -47.168 28.7432 1.29763 1 4.13696e-09 
1802 1 -44.7562 28.1567 1.11232 1 1.98253e-09 
2221 1 -42.3444 27.5702 0.927001 1 6.8442e-09 
2223 1 -39.9326 26.9837 0.741676 1 1.62678e-08 
2596 1 -39.376 28.7438 2.41141 1 1.07854e-08 
2597 1 -38.2628 28.7439 0.185287 1 6.65092e-09 
2599 1 -36.9641 28.1574 2.22613 1 5.72801e-09 
2646 1 -35.851 28.1575 5.74781e-06 1 2.34644e-09 
3019 1 -34.5523 27.571 2.04087 1 1.74075e-09 
3021 1 -32.1405 26.9846 1.85559 1 5.22767e-09 
3393 1 -30.4707 28.7448 1.2992 1 1.50216e-08 
3444 1 -28.0589 28.1584 1.11386 1 1.75545e-08 
3816 1 -25.6471 27.5719 0.928444 1 2.50019e-09 
3863 1 -23.2352 26.9854 0.743022 1 3.04789e-09 
4190 1 -22.6787 28.7454 2.41272 1 5.66161e-09 
4243 1 -21.5655 28.7455 0.186522 1 2.1906e-08 
4241 1 -20.2669 28.159 2.2273 1 2.03561e-08 
4244 1 -19.1537 28.159 0.00111773 1 1.39121e-07 
4614 1 -17.8551 27.5725 2.04189 1 1.12076e-07 
4662 1 -15.4433 26.986 1.85646 1 9.48252e-07 
5040 1 -13.7743 28.7464 1.30016 1 2.2391e-05 
5042 1 -11.364 28.1603 1.11487 1 0.000190135 
5460 1 -8.95629 27.5751 0.929172 1 0.00165693 
5462 1 -6.5557 26.9943 0.741853 1 0.0153558 
5820 1 -5.95755 28.7433 2.40694 1 0.0240015 
5821 1 -4.83498 28.7469 0.17715 1 0.0476104 
5823 1 -3.49998 28.1581 2.19736 1 0.217242 
5869 1 -4.18237 26.4223 0.554267 1 0.151403 
6168 1 -0.973971 27.5959 1.96109 5 2.09218 
6821 2 1.73835 27.5965 1.96149 5 2.08523 
7142 2 4.26413 28.159 2.19771 1 0.21649 
7143 2 4.94628 26.4232 0.554523 1 0.150796 
7144 2 5.59916 28.7478 0.177499 1 0.0473984 
7193 2 6.72168 28.7442 2.40732 1 0.0239125 
7513 2 7.31975 26.9952 0.742247 1 0.0152921 
7559 2 9.72038 27.5762 0.929707 1 0.00164861 
7932 2 12.1281 28.1616 1.11557 1 0.000189093 
7936 2 13.7955 26.4008 1.67179 1 8.88486e-06 
7982 2 14.5384 28.7477 1.30106 1 2.23095e-05 
8357 2 16.2073 26.9874 1.85747 1 9.40579e-07 
8360 2 18.6191 27.574 2.04302 1 1.09532e-07 
8730 2 19.9177 28.1606 0.00228557 1 1.53667e-07 
8734 2 21.5874 26.4006 0.558848 1 2.04891e-08 
8779 2 22.3295 28.7472 0.187775 1 2.58185e-08 
8780 2 21.0309 28.1606 2.22853 1 1.61451e-08 
8783 2 23.4427 28.7472 2.41399 1 5.41248e-09 
9155 2 23.9992 26.9871 0.744291 1 4.31702e-09 
81 4 -66.2768 29.3293 1.48237 5 30.976 
261 4 -64.6071 31.0893 0.925812 5 6.1952 
262 4 -62.1953 30.5026 0.740292 1 9.99004e-16 
75 4 -59.227 31.676 2.22445 1 8.99809e-16 
607 4 -59.7836 29.916 0.554771 1 6.99803e-16 
608 4 -57.3718 29.3293 0.369251 1 8.85452e-08 
955 4 -56.8152 31.0893 2.03893 1 1.66586e-07 
956 1 -54.4034 30.5028 1.8536 1 6.67927e-09 
1377 1 -51.9916 29.9163 1.66824 1 7.68135e-09 
457 1 -50.3219 31.6763 1.11182 1 2.32434e-09 
1378 1 -49.5798 29.3297 1.48293 1 5.59948e-09 
1750 1 -47.9101 31.0898 0.926511 1 3.83095e-09 
1801 1 -45.4983 30.5033 0.741228 1 3.15357e-09 
1164 1 -42.5299 31.6768 2.22563 1 1.87079e-09 
2174 1 -43.0865 29.9168 0.555912 1 5.54461e-09 
2222 1 -40.6746 29.3303 0.370566 1 1.31403e-08 
2548 1 -40.1181 31.0904 2.0403 1 1.33297e-08 
2598 1 -37.7062 30.504 1.85503 1 3.59632e-09 
1974 1 -33.6247 31.6778 1.11337 1 2.59372e-09 
2972 1 -35.2944 29.9176 1.66976 1 1.96625e-09 
3020 1 -32.8826 29.3312 1.48448 1 1.87408e-09 
3396 1 -31.2128 31.0914 0.928086 1 8.5373e-09 
3397 1 -28.801 30.505 0.74276 1 9.74453e-09 
3819 1 -26.3892 29.9185 0.557371 1 4.28755e-09 
2783 1 -25.8326 31.6785 2.22708 1 2.7613e-09 
2784 1 -24.7194 31.6786 0.000883831 1 1.86257e-09 
3820 1 -23.9773 29.332 0.371938 1 7.63765e-09 
4193 1 -23.4208 31.0921 2.04166 1 8.90238e-09 