ITEM: TIMESTEP
0
ITEM: NUMBER OF ATOMS
15570
ITEM: BOX BOUNDS ss pp pp
-62.6067 116.473
0 30.4841
0 31.0878
ITEM: ATOMS id type x y z c_cna c_csd 
13 4 -61.5711 2.03026 0.187311 5 12.3904 
129 4 -60.8808 2.03026 2.57868 5 6.1952 
131 4 -59.155 2.03026 0.785153 1 9.97767e-16 
326 4 -56.7388 2.03026 1.383 1 2.00006e-16 
257 1 -52.5968 2.03031 0.187312 1 1.21647e-08 
368 4 -54.3227 2.03026 1.98084 1 1.05028e-08 
648 1 -51.9065 2.03034 2.57868 1 8.34106e-09 
651 1 -50.1806 2.03043 0.785163 1 6.56509e-09 
1030 1 -47.7644 2.03061 1.38305 1 1.22443e-09 
1032 1 -45.3482 2.03079 1.98094 1 2.42964e-09 
801 1 -43.6223 2.0309 0.187468 1 8.9995e-10 
1429 1 -42.932 2.03094 2.57885 1 1.04096e-09 
1431 1 -41.2061 2.03106 0.785364 1 2.27158e-09 
1788 1 -38.7899 2.03123 1.38326 1 1.37872e-09 
1565 1 -34.6478 2.03151 0.187653 1 3.61704e-09 
1830 1 -36.3736 2.0314 1.98116 1 1.90677e-09 
2187 1 -33.9574 2.03156 2.57902 1 2.81416e-09 
2190 1 -32.2316 2.03169 0.785505 1 1.18466e-09 
2589 1 -29.8153 2.03186 1.38337 1 2.14961e-09 
2591 1 -27.3991 2.03203 1.98126 1 5.10533e-10 
2340 1 -25.6732 2.03215 0.18777 1 2.58887e-09 
2989 1 -24.9829 2.0322 2.57915 1 3.75611e-09 
2990 1 -23.6022 1.13114e-05 2.18061 1 2.85146e-09 
2991 1 -23.257 2.0323 0.785651 1 1.4933e-09 
2993 1 -21.8764 0.000115914 0.387104 1 1.2282e-08 
3348 1 -20.8408 2.03245 1.38353 1 1.12702e-08 
3392 1 -19.4602 0.000229564 0.98501 1 8.04179e-08 
3125 1 -16.6986 2.03262 0.188016 1 5.67896e-07 
3390 1 -18.4246 2.03256 1.98145 1 4.76804e-08 
3393 1 -17.0441 0.000313291 1.58293 1 7.56869e-07 
3747 1 -16.0084 2.03267 2.57937 1 4.52961e-07 
3750 1 -14.2822 2.03271 0.786011 1 4.44688e-06 
3792 1 -14.6282 0.000348253 2.18085 1 6.44403e-06 
3793 1 -12.9025 0.000488241 0.387323 1 1.7776e-05 
4149 1 -11.8652 2.03278 1.38406 1 3.47132e-05 
4150 1 -10.4874 0.00081609 0.985094 1 0.000140465 
4151 1 -9.44687 2.03291 1.9822 1 0.000286821 
3900 1 -7.71771 2.03525 0.190022 1 0.00239828 
4192 1 -8.07312 0.00230097 1.58223 1 0.00115391 
4546 1 -7.02395 2.03231 2.58121 1 0.00326914 
4547 1 -5.66007 0.0047839 2.18169 1 0.0114685 
4548 1 -5.29711 2.04478 0.792275 1 0.0255467 
4550 1 -3.97476 0.00569422 0.378901 1 0.119011 
4878 1 -2.85252 2.08351 1.36694 5 0.771353 
4919 1 -1.65698 0.000371298 0.986944 5 5.35078 
4918 1 -0.506693 2.00733 1.94864 5 6.21226 
6050 2 0.643672 0.000610606 0.988202 5 5.35635 
6091 2 2.96141 0.00570271 0.380789 1 0.119797 
6092 2 1.83942 2.08351 1.3688 5 0.774028 
6095 2 4.28364 2.04469 0.794387 1 0.0256845 
6438 2 4.64658 0.00468309 2.18391 1 0.0115283 
6439 2 6.01042 2.03214 2.58369 1 0.00329527 
6441 2 7.05964 0.00214339 1.58492 1 0.00116089 
6481 2 6.70421 2.03509 0.192634 1 0.00241129 
6483 2 8.43334 2.03276 1.98513 1 0.000289057 
6838 2 9.47382 0.000712471 0.988187 1 0.000141107 
6839 2 10.8517 2.03272 1.38734 1 3.47185e-05 
6841 2 11.8889 0.000480667 0.390731 1 1.78236e-05 
6882 2 13.2686 2.03274 0.789582 1 4.33678e-06 
7198 2 13.6145 0.00039616 2.18446 1 6.23461e-06 
7239 2 15.685 2.03285 0.191789 1 5.84303e-07 
7240 2 16.0304 0.000575603 1.58673 1 7.29907e-07 
7241 2 14.9948 2.03283 2.58309 1 4.46016e-07 
7244 2 17.4109 2.03297 1.98532 1 5.83868e-08 
7598 2 18.4465 0.000737402 0.988944 1 8.98173e-08 
7640 2 20.8626 0.000840068 0.391192 1 1.24586e-08 
7641 2 19.8271 2.03308 1.38755 1 9.81935e-09 
7644 2 22.2433 2.03316 0.789818 1 1.46947e-09 
7998 2 22.5884 0.000899798 2.1848 1 1.41607e-09 
7999 2 23.9691 2.03322 2.58342 1 2.9063e-09 
8001 2 25.0046 0.00097199 1.58707 1 5.5146e-09 
8041 2 24.6595 2.03323 0.192086 1 3.78257e-09 
8043 2 26.3853 2.03326 1.98571 1 2.49331e-09 
111 4 -60.5356 4.06253 1.18371 5 6.1952 
325 4 -58.1195 4.06253 1.78156 1 1.09838e-15 
327 4 -55.7033 4.06253 2.3794 1 6.00001e-16 
606 4 -53.9775 4.06253 0.585873 1 1.78444e-08 
649 1 -51.5613 4.06263 1.18372 1 5.44871e-09 
986 1 -49.1451 4.06278 1.78158 1 3.68379e-09 
1028 1 -46.7289 4.06297 2.37947 1 1.99306e-09 
1387 1 -45.003 4.06309 0.585982 1 4.47069e-09 
1388 1 -42.5868 4.06324 1.1839 1 1.44751e-09 
1787 1 -40.1706 4.06341 1.78179 1 6.69661e-10 
1789 1 -37.7543 4.06358 2.37969 1 7.95976e-10 
2145 1 -36.0285 4.06369 0.586199 1 3.13373e-09 
2188 1 -33.6123 4.06386 1.18405 1 1.00111e-09 
2545 1 -31.196 4.06404 1.78191 1 2.54666e-09 
2587 1 -28.7798 4.06421 2.3798 1 1.482e-09 
2947 1 -27.0539 4.06432 0.586302 1 7.27519e-10 
2948 1 -24.6377 4.06449 1.18419 1 1.54329e-09 
3347 1 -22.2215 4.06464 1.78207 1 6.7129e-09 
3349 1 -19.8053 4.06476 2.37998 1 7.09156e-08 
3705 1 -18.0794 4.06482 0.586536 1 1.29144e-07 
3748 1 -15.6631 4.06487 1.18454 1 1.10131e-06 
4105 1 -13.2465 4.0648 1.78269 1 1.06118e-05 
4147 1 -10.8293 4.06438 2.38116 1 0.000108049 
4504 1 -9.10541 4.06562 0.588675 1 0.000310771 
4505 1 -6.68878 4.06957 1.1909 1 0.00392359 
4877 1 -4.26441 4.08181 1.80073 1 0.0540768 
4879 1 -1.81615 4.09786 2.49625 5 1.65564 
5145 1 -0.506526 3.95256 0.510749 5 10.2934 
5796 2 0.802393 4.09782 2.49723 5 1.6572 
6093 2 3.25107 4.08177 1.80282 1 0.0541373 
6136 2 5.67532 4.06942 1.19334 1 0.00394786 
6482 2 8.0919 4.06547 0.591546 1 0.000313067 
6487 2 9.8157 4.06427 2.3843 1 0.000109193 
6883 2 12.2329 4.06479 1.78613 1 1.06216e-05 
6886 2 14.6494 4.065 1.18824 1 1.13132e-06 
7283 2 17.0657 4.0652 0.590386 1 1.21857e-07 
7285 2 18.7916 4.06531 2.38394 1 6.02324e-08 
7642 2 21.2078 4.0654 1.78618 1 6.37262e-09 
7685 2 23.6239 4.06548 1.18845 1 3.66261e-09 
8042 2 26.0401 4.06553 0.590727 1 1.77233e-09 
109 4 -61.9163 6.0948 1.58228 5 18.5856 
288 4 -59.5001 6.0948 2.18012 1 1.20082e-15 
291 4 -57.7743 6.0948 0.386592 1 9.00008e-16 
605 4 -55.3582 6.0948 0.984434 1 9.02246e-16 
607 4 -52.942 6.0948 1.58228 1 7.16712e-08 
985 1 -50.5258 6.09497 2.18012 1 1.78987e-09 
987 1 -48.7999 6.09508 0.386619 1 4.57548e-09 
1342 1 -46.3837 6.09527 0.984515 1 4.30767e-09 
1385 1 -43.9675 6.09543 1.58243 1 3.08083e-09 
1742 1 -41.5513 6.09558 2.18032 1 1.80091e-09 
1745 1 -39.8254 6.0957 0.386836 1 3.98756e-10 
2144 1 -37.4092 6.09588 0.984728 1 2.99384e-09 
2146 1 -34.993 6.09603 1.58261 1 5.31504e-09 
2544 1 -32.5767 6.09621 2.18046 1 2.65916e-09 
2546 1 -30.8509 6.09633 0.386953 1 2.30389e-09 
2902 1 -28.4346 6.0965 0.984839 1 1.01407e-09 
2945 1 -26.0184 6.09667 1.58273 1 1.7254e-09 
3302 1 -23.6022 6.09683 2.18061 1 2.82822e-09 
3305 1 -21.8764 6.09693 0.387106 1 1.25929e-08 
3704 1 -19.4602 6.09705 0.98501 1 8.28515e-08 
3706 1 -17.0441 6.09713 1.58293 1 7.53875e-07 
4104 1 -14.6282 6.09717 2.18085 1 6.41307e-06 
4106 1 -12.9025 6.09731 0.387324 1 1.77869e-05 
4459 1 -10.4874 6.09764 0.985095 1 0.000140462 
4502 1 -8.07312 6.09912 1.58223 1 0.00115368 
4832 1 -5.66007 6.1016 2.18169 1 0.0114684 
4835 1 -3.97477 6.10251 0.378897 1 0.119027 
5144 1 -1.65696 6.09719 0.986944 5 5.35067 
5795 2 0.643653 6.09743 0.988202 5 5.35628 
5838 2 2.96142 6.10252 0.380786 1 0.119813 
6137 2 4.64658 6.1015 2.18391 1 0.0115287 
6140 2 7.05964 6.09896 1.58492 1 0.00116068 
6526 2 9.47382 6.09753 0.988188 1 0.000141055 
6529 2 11.8889 6.0973 0.390731 1 1.78264e-05 
6884 2 13.6145 6.09721 2.18446 1 6.24122e-06 
6928 2 16.0304 6.09739 1.58673 1 7.30938e-07 
7284 2 18.4465 6.09756 0.988942 1 9.03618e-08 
7328 2 20.8626 6.09766 0.391191 1 1.27203e-08 
7686 2 22.5884 6.09772 2.1848 1 1.52561e-09 
7689 2 25.0046 6.09779 1.58707 1 5.3958e-09 
61 4 -61.5711 8.12708 0.187311 5 12.3904 
269 4 -60.5356 10.1593 1.18371 5 6.1952 
287 4 -60.8808 8.12708 2.57868 5 6.1952 
289 4 -59.155 8.12708 0.785153 1 9.97767e-16 
560 4 -58.1195 10.1593 1.78156 1 7.98384e-16 
561 4 -56.7388 8.12708 1.383 1 2.00006e-16 
562 4 -55.7033 10.1593 2.3794 1 3.00002e-16 
466 1 -52.5968 8.12713 0.187311 1 1.20001e-08 
603 4 -54.3227 8.12708 1.98084 1 1.05093e-08 
900 4 -53.9775 10.1593 0.585873 1 1.77006e-08 
940 1 -51.9065 8.12715 2.57868 1 8.40612e-09 
941 1 -51.5613 10.1594 1.18372 1 5.98229e-09 
943 1 -50.1806 8.12725 0.785163 1 6.54571e-09 
1298 1 -49.1451 10.1596 1.78158 1 4.2158e-09 
1341 1 -47.7644 8.12743 1.38305 1 8.16467e-10 
1339 1 -46.7289 10.1598 2.37947 1 2.06816e-09 
1343 1 -45.3482 8.12761 1.98094 1 2.53283e-09 
1699 1 -45.003 10.1599 0.585982 1 5.27254e-09 
1138 1 -43.6223 8.12772 0.187467 1 1.12027e-09 
1700 1 -42.5868 10.1601 1.1839 1 1.47118e-09 
1741 1 -42.932 8.12776 2.57885 1 8.62474e-10 
1743 1 -41.2061 8.12788 0.785363 1 2.27685e-09 
2099 1 -40.1706 10.1602 1.78179 1 6.55275e-10 
2100 1 -38.7899 8.12805 1.38326 1 1.25758e-09 
2101 1 -37.7543 10.1604 2.37969 1 1.05846e-09 
1928 1 -34.6478 8.12833 0.187652 1 3.23975e-09 
2142 1 -36.3737 8.12822 1.98116 1 1.82133e-09 
2459 1 -36.0285 10.1605 0.586198 1 3.18021e-09 
2499 1 -33.9574 8.12837 2.57902 1 2.75694e-09 
2500 1 -33.6123 10.1607 1.18405 1 1.43963e-09 
2502 1 -32.2316 8.12851 0.785505 1 9.78239e-10 
2858 1 -31.196 10.1609 1.78191 1 1.57459e-09 
2901 1 -29.8153 8.12868 1.38337 1 2.29822e-09 
2899 1 -28.7798 10.161 2.37979 1 1.26577e-09 
2903 1 -27.3991 8.12885 1.98126 1 5.05172e-10 
3259 1 -27.0539 10.1611 0.586301 1 8.68591e-10 
2697 1 -25.6732 8.12896 0.187769 1 2.50195e-09 
3260 1 -24.6377 10.1613 1.18419 1 1.6801e-09 
3301 1 -24.9829 8.12902 2.57915 1 3.28912e-09 
3303 1 -23.257 8.12912 0.785653 1 1.6212e-09 
3660 1 -20.8408 8.12927 1.38353 1 1.17212e-08 
3488 1 -16.6986 8.12944 0.188017 1 5.66784e-07 
3702 1 -18.4246 8.12938 1.98145 1 4.78789e-08 
4059 1 -16.0085 8.12949 2.57937 1 4.58014e-07 
4062 1 -14.2822 8.12953 0.786012 1 4.45139e-06 
4458 1 -11.8652 8.1296 1.38407 1 3.46915e-05 
4456 1 -10.8293 10.1612 2.38116 1 0.000108004 
4460 1 -9.44688 8.12973 1.9822 1 0.000286585 
4257 1 -7.71771 8.13207 0.190021 1 0.00239805 
4831 1 -7.02396 8.12913 2.58121 1 0.0032684 
4833 1 -5.29711 8.1416 0.792275 1 0.0255461 
5103 1 -2.85252 8.18033 1.36694 5 0.771368 
5143 1 -0.506694 8.10415 1.94864 5 6.21228 
5295 1 -0.506508 10.0494 0.510748 5 10.2935 
5839 2 1.83942 8.18033 1.3688 5 0.774036 
5842 2 4.28364 8.14151 0.794385 1 0.0256862 
6138 2 6.01042 8.12896 2.58369 1 0.00329495 
6180 2 6.70421 8.13191 0.192634 1 0.00241091 
6182 2 8.43334 8.12958 1.98513 1 0.000289092 
6186 2 9.8157 10.1611 2.3843 1 0.000109185 
6527 2 10.8517 8.12954 1.38734 1 3.47117e-05 
6570 2 13.2686 8.12956 0.789581 1 4.33234e-06 
6927 2 15.685 8.12967 0.191788 1 5.86251e-07 
6929 2 14.9948 8.12964 2.58309 1 4.45897e-07 
6932 2 17.4109 8.12979 1.98532 1 5.8498e-08 
7329 2 19.8271 8.1299 1.38755 1 1.01851e-08 
7332 2 22.2433 8.12998 0.789818 1 1.5746e-09 
7687 2 23.9691 8.13004 2.58342 1 2.92284e-09 
7729 2 24.6595 8.13005 0.192087 1 3.72647e-09 
7731 2 26.3853 8.13008 1.98571 1 2.54383e-09 
267 4 -61.9163 12.1916 1.58228 5 18.5856 
524 4 -59.5001 12.1916 2.18012 1 1.20082e-15 
527 4 -57.7743 12.1916 0.386592 1 9.00008e-16 
899 4 -55.3582 12.1916 0.984434 1 9.02246e-16 
901 4 -52.942 12.1916 1.58228 1 7.19981e-08 
1297 1 -50.5258 12.1918 2.18012 1 2.51343e-09 
1299 1 -48.7999 12.1919 0.38662 1 4.30662e-09 
1660 1 -46.3837 12.1921 0.984515 1 4.2559e-09 
1697 1 -43.9675 12.1922 1.58243 1 3.14442e-09 
2058 1 -41.5513 12.1924 2.18033 1 2.00523e-09 
2061 1 -39.8254 12.1925 0.386837 1 4.86301e-10 
2458 1 -37.4092 12.1927 0.984728 1 2.94204e-09 
2460 1 -34.993 12.1929 1.58261 1 4.7697e-09 
2857 1 -32.5767 12.193 2.18046 1 2.52155e-09 
2859 1 -30.8509 12.1932 0.386953 1 2.01964e-09 
3220 1 -28.4346 12.1933 0.984839 1 1.09521e-09 
3257 1 -26.0184 12.1935 1.58273 1 1.6193e-09 
3618 1 -23.6022 12.1936 2.18061 1 2.87675e-09 
3621 1 -21.8764 12.1938 0.387104 1 1.25033e-08 
3659 1 -22.2215 10.1615 1.78207 1 6.765e-09 
3661 1 -19.8053 10.1616 2.37997 1 6.8731e-08 
4018 1 -19.4602 12.1939 0.985009 1 8.26828e-08 
4019 1 -18.0794 10.1616 0.586536 1 1.28654e-07 
4020 1 -17.0441 12.194 1.58293 1 7.48805e-07 
4060 1 -15.6631 10.1617 1.18454 1 1.10415e-06 
4414 1 -14.6282 12.194 2.18085 1 6.43549e-06 
4415 1 -13.2465 10.1616 1.78269 1 1.05818e-05 
4416 1 -12.9025 12.1941 0.387323 1 1.77811e-05 
4750 1 -10.4874 12.1945 0.985094 1 0.000140395 
4789 1 -9.1054 10.1624 0.588675 1 0.000310781 
4787 1 -8.07312 12.1959 1.58223 1 0.00115379 
4790 1 -6.68878 10.1664 1.1909 1 0.00392335 
5061 1 -5.66007 12.1984 2.18169 1 0.0114686 
5064 1 -3.97477 12.1993 0.378898 1 0.11902 
5102 1 -4.26441 10.1786 1.80073 1 0.0540798 
5104 1 -1.81616 10.1947 2.49625 5 1.65567 
5294 1 -1.65698 12.194 0.986946 5 5.35073 
5617 2 0.643668 12.1942 0.9882 5 5.35637 
5618 2 0.802392 10.1946 2.49722 5 1.65716 
5654 2 2.96141 12.1993 0.380789 1 0.119797 
5840 2 3.25107 10.1786 1.80282 1 0.0541307 
5882 2 5.67532 10.1662 1.19334 1 0.00394826 
5883 2 4.64658 12.1983 2.18391 1 0.0115285 
5886 2 7.05964 12.1958 1.58492 1 0.00116076 
6181 2 8.0919 10.1623 0.591546 1 0.000313021 
6223 2 9.47382 12.1944 0.988188 1 0.000141064 
6226 2 11.8889 12.1941 0.390731 1 1.78257e-05 
6571 2 12.2329 10.1616 1.78613 1 1.06329e-05 
6572 2 13.6145 12.194 2.18446 1 6.23545e-06 
6574 2 14.6494 10.1618 1.18824 1 1.13175e-06 
6612 2 16.0304 12.1942 1.58673 1 7.26332e-07 
6971 2 17.0657 10.162 0.590386 1 1.21382e-07 
6972 2 18.4465 12.1944 0.988943 1 9.03307e-08 
6973 2 18.7916 10.1621 2.38394 1 5.98334e-08 
7010 2 20.8626 12.1945 0.391192 1 1.29671e-08 
7330 2 21.2078 10.1622 1.78618 1 6.79304e-09 
7372 2 23.6239 10.1623 1.18844 1 3.72887e-09 
7373 2 22.5884 12.1945 2.1848 1 1.55636e-09 
7376 2 25.0046 12.1946 1.58707 1 5.44415e-09 
7730 2 26.0401 10.1623 0.590727 1 1.68242e-09 
166 4 -61.5711 14.2239 0.187311 5 18.5856 
523 4 -60.8808 14.2239 2.57868 5 6.1952 
525 4 -59.155 14.2239 0.785153 1 1.29777e-15 
864 4 -56.7388 14.2239 1.383 1 5.00005e-16 
732 1 -52.5968 14.2239 0.187311 1 1.20227e-08 
897 4 -54.3227 14.2239 1.98084 1 1.06929e-08 
1260 1 -51.9065 14.224 2.57868 1 8.53757e-09 
1263 1 -50.1806 14.2241 0.785165 1 7.01271e-09 
1659 1 -47.7644 14.2243 1.38305 1 1.20485e-09 
1661 1 -45.3482 14.2244 1.98094 1 2.20334e-09 
1474 1 -43.6223 14.2245 0.187469 1 1.25765e-09 
2057 1 -42.932 14.2246 2.57885 1 7.92314e-10 
2059 1 -41.2061 14.2247 0.785365 1 1.82151e-09 
2423 1 -38.7899 14.2249 1.38326 1 1.35818e-09 
2271 1 -34.6478 14.2251 0.187653 1 3.75515e-09 
2456 1 -36.3736 14.225 1.98116 1 2.15749e-09 
2820 1 -33.9574 14.2252 2.57902 1 2.18698e-09 
2823 1 -32.2316 14.2253 0.785505 1 1.12946e-09 
3219 1 -29.8153 14.2255 1.38337 1 2.0492e-09 
3221 1 -27.3991 14.2257 1.98126 1 7.08875e-10 
3034 1 -25.6732 14.2258 0.187769 1 2.12528e-09 
3617 1 -24.9829 14.2258 2.57915 1 3.48155e-09 
3619 1 -23.257 14.2259 0.785652 1 1.75543e-09 
3983 1 -20.8408 14.2261 1.38353 1 1.21443e-08 
3831 1 -16.6986 14.2263 0.188016 1 5.64656e-07 
4016 1 -18.4246 14.2262 1.98145 1 4.69355e-08 
4377 1 -16.0085 14.2263 2.57937 1 4.56561e-07 
4380 1 -14.2822 14.2263 0.786011 1 4.45504e-06 
4749 1 -11.8652 14.2264 1.38407 1 3.46513e-05 
4751 1 -9.44688 14.2265 1.9822 1 0.000286644 
4591 1 -7.71771 14.2289 0.190021 1 0.00239789 
5060 1 -7.02396 14.2259 2.5812 1 0.00326858 
5062 1 -5.29712 14.2384 0.792274 1 0.0255473 
5262 1 -2.85252 14.2771 1.36694 5 0.771348 
5293 1 -0.506695 14.201 1.94864 5 6.21226 
5655 2 1.83941 14.2771 1.3688 5 0.774034 
5658 2 4.28364 14.2383 0.794386 1 0.0256856 
5884 2 6.01042 14.2258 2.58369 1 0.00329506 
5918 2 6.70421 14.2287 0.192635 1 0.0024112 
5920 2 8.43334 14.2264 1.98513 1 0.000289148 
6224 2 10.8517 14.2264 1.38734 1 3.47179e-05 
6258 2 13.2686 14.2264 0.789582 1 4.34362e-06 
6611 2 15.685 14.2265 0.191789 1 5.81181e-07 
6613 2 14.9948 14.2265 2.58309 1 4.48277e-07 
6616 2 17.4109 14.2266 1.98532 1 5.74489e-08 
7011 2 19.8271 14.2267 1.38755 1 9.69232e-09 
7014 2 22.2433 14.2268 0.789819 1 1.3744e-09 
7374 2 23.9691 14.2269 2.58342 1 3.21285e-09 
7408 2 24.6595 14.2269 0.192087 1 3.7498e-09 
7410 2 26.3853 14.2269 1.98571 1 2.43506e-09 
505 4 -60.5356 16.2562 1.18371 5 6.1952 
863 4 -58.1195 16.2562 1.78156 1 7.98383e-16 
865 4 -55.7033 16.2562 2.3794 1 3.00001e-16 
1232 4 -53.9775 16.2562 0.585873 1 1.79913e-08 
1261 1 -51.5613 16.2563 1.18372 1 5.54158e-09 
1627 1 -49.1451 16.2564 1.78158 1 3.99758e-09 
1657 1 -46.7289 16.2566 2.37947 1 2.2519e-09 
2026 1 -45.003 16.2567 0.585981 1 5.34047e-09 
2027 1 -42.5868 16.2569 1.1839 1 1.55023e-09 
2422 1 -40.1706 16.257 1.78179 1 7.09485e-10 
2424 1 -37.7543 16.2572 2.37969 1 7.21639e-10 
2792 1 -36.0285 16.2573 0.586199 1 3.50387e-09 
2821 1 -33.6123 16.2575 1.18405 1 1.12399e-09 
3187 1 -31.196 16.2577 1.78191 1 1.61073e-09 
3217 1 -28.7798 16.2578 2.3798 1 1.36899e-09 
3586 1 -27.0539 16.258 0.586302 1 5.26089e-10 
3587 1 -24.6377 16.2581 1.18419 1 1.42249e-09 
3982 1 -22.2215 16.2583 1.78207 1 6.93485e-09 
3984 1 -19.8053 16.2584 2.37997 1 7.01989e-08 
4349 1 -18.0794 16.2585 0.586536 1 1.2902e-07 
4378 1 -15.6631 16.2585 1.18454 1 1.10733e-06 
4717 1 -13.2465 16.2584 1.78269 1 1.06044e-05 
4747 1 -10.8293 16.258 2.38116 1 0.000108012 
5029 1 -9.10541 16.2593 0.588676 1 0.000310674 
5030 1 -6.68878 16.2632 1.1909 1 0.00392382 
5261 1 -4.26441 16.2754 1.80073 1 0.0540747 
5263 1 -1.81616 16.2915 2.49625 5 1.65565 
5386 1 -0.506526 16.1462 0.510746 5 10.2934 
5503 2 0.802394 16.2915 2.49723 5 1.65723 
5656 2 3.25107 16.2754 1.80282 1 0.0541355 
5687 2 5.67532 16.2631 1.19334 1 0.00394791 
5919 2 8.0919 16.2591 0.591547 1 0.00031306 
5924 2 9.8157 16.2579 2.3843 1 0.000109238 
6259 2 12.2329 16.2584 1.78613 1 1.06244e-05 
6262 2 14.6494 16.2586 1.18824 1 1.13169e-06 
6644 2 17.0657 16.2588 0.590386 1 1.22178e-07 
6646 2 18.7916 16.2589 2.38394 1 6.02617e-08 
7012 2 21.2078 16.259 1.78618 1 6.33726e-09 
7043 2 23.6239 16.2591 1.18845 1 3.59687e-09 
7409 2 26.0401 16.2592 0.590727 1 1.5429e-09 
328 4 -61.5711 20.3207 0.187311 5 12.3904 
503 4 -61.9163 18.2884 1.58228 5 18.5856 
833 4 -60.8808 20.3207 2.57868 5 6.1952 
834 4 -59.5001 18.2884 2.18012 1 9.00821e-16 
835 4 -59.155 20.3207 0.785153 1 1.29777e-15 
837 4 -57.7743 18.2884 0.386592 1 6.00008e-16 
1208 4 -56.7388 20.3207 1.383 1 5.00005e-16 
1231 4 -55.3582 18.2884 0.984434 1 6.02246e-16 
1033 1 -52.5968 20.3208 0.187312 1 1.19763e-08 
1229 4 -54.3227 20.3207 1.98084 1 1.08101e-08 
1233 4 -52.942 18.2884 1.58228 1 7.23935e-08 
1601 1 -51.9065 20.3208 2.57868 1 8.23482e-09 
1604 1 -50.1806 20.3209 0.785163 1 7.3602e-09 
1626 1 -50.5258 18.2886 2.18012 1 2.40885e-09 
1628 1 -48.7999 18.2887 0.386619 1 4.70064e-09 
1998 1 -47.7644 20.3211 1.38305 1 9.42599e-10 
1999 1 -46.3837 18.2889 0.984515 1 4.28333e-09 
2000 1 -45.3482 20.3213 1.98094 1 2.47519e-09 
1790 1 -43.6223 20.3214 0.187469 1 1.30497e-09 
2024 1 -43.9675 18.2891 1.58243 1 2.63252e-09 
2392 1 -42.932 20.3214 2.57885 1 1.30651e-09 
2393 1 -41.5513 18.2892 2.18033 1 2.45788e-09 
2394 1 -41.2061 20.3215 0.785362 1 2.37074e-09 
2396 1 -39.8254 18.2893 0.386837 1 4.69739e-10 
2768 1 -38.7899 20.3217 1.38326 1 1.39381e-09 
2791 1 -37.4092 18.2895 0.984729 1 2.94429e-09 
2592 1 -34.6478 20.322 0.187651 1 2.95665e-09 
2789 1 -36.3736 20.3219 1.98116 1 2.2757e-09 
2793 1 -34.993 18.2897 1.58261 1 4.57722e-09 
3161 1 -33.9574 20.322 2.57902 1 2.63302e-09 
3164 1 -32.2316 20.3221 0.785504 1 9.58914e-10 
3186 1 -32.5767 18.2899 2.18046 1 2.52212e-09 
3188 1 -30.8509 18.29 0.386954 1 1.84052e-09 
3558 1 -29.8153 20.3223 1.38337 1 2.65026e-09 
3559 1 -28.4346 18.2901 0.984838 1 1.04214e-09 
3560 1 -27.3991 20.3225 1.98126 1 6.4416e-10 
3350 1 -25.6732 20.3226 0.187769 1 2.11566e-09 
3584 1 -26.0184 18.2903 1.58273 1 1.42627e-09 
3952 1 -24.9829 20.3227 2.57915 1 3.6874e-09 
3953 1 -23.6022 18.2905 2.18061 1 2.82102e-09 
3956 1 -21.8764 18.2906 0.387106 1 1.24157e-08 
4348 1 -19.4602 18.2907 0.985011 1 8.13631e-08 
4350 1 -17.0441 18.2908 1.58293 1 7.60952e-07 
4716 1 -14.6282 18.2908 2.18085 1 6.46101e-06 
4718 1 -12.9025 18.2909 0.387323 1 1.78078e-05 
5002 1 -10.4874 18.2913 0.985096 1 0.000140387 
5027 1 -8.07312 18.2928 1.58223 1 0.00115373 
5232 1 -5.66007 18.2952 2.18169 1 0.0114682 
5235 1 -3.97476 18.2962 0.3789 1 0.119009 
5385 1 -1.65698 18.2908 0.986945 5 5.35077 
5384 1 -0.506693 20.2978 1.94864 5 6.21226 
5502 2 0.643674 18.2911 0.988201 5 5.35637 
5527 2 2.96141 18.2962 0.38079 1 0.119798 
5688 2 4.64658 18.2951 2.18392 1 0.0115288 
5689 2 6.01042 20.3226 2.58369 1 0.00329496 
5691 2 7.05964 18.2926 1.58492 1 0.00116082 
5949 2 9.47382 18.2912 0.988189 1 0.000141071 
5952 2 11.8889 18.2909 0.390732 1 1.78187e-05 
6260 2 13.6145 18.2909 2.18446 1 6.22559e-06 
6288 2 16.0304 18.291 1.58673 1 7.25527e-07 
6645 2 18.4465 18.2912 0.988944 1 8.97159e-08 
6671 2 20.8626 18.2913 0.391192 1 1.21661e-08 
7044 2 22.5884 18.2914 2.1848 1 1.35908e-09 
7047 2 25.0046 18.2914 1.58707 1 5.14639e-09 
818 4 -60.5356 22.353 1.18371 5 6.1952 
1207 4 -58.1195 22.353 1.78156 1 1.09838e-15 
1209 4 -55.7033 22.353 2.3794 1 6.00001e-16 
1585 4 -53.9775 22.353 0.585873 1 1.78003e-08 
1602 1 -51.5613 22.3531 1.18372 1 5.77365e-09 
1978 1 -49.1451 22.3532 1.78158 1 3.65811e-09 
1996 1 -46.7289 22.3534 2.37947 1 1.86358e-09 
2373 1 -45.003 22.3535 0.585981 1 5.88593e-09 
2374 1 -42.5868 22.3537 1.1839 1 1.52766e-09 
2767 1 -40.1706 22.3539 1.78179 1 5.6833e-10 
2769 1 -37.7543 22.354 2.37969 1 9.14492e-10 
3145 1 -36.0285 22.3541 0.5862 1 3.21379e-09 
3162 1 -33.6123 22.3543 1.18405 1 1.24544e-09 
3538 1 -31.196 22.3545 1.78191 1 2.33204e-09 
3556 1 -28.7798 22.3547 2.3798 1 1.30389e-09 
3933 1 -27.0539 22.3548 0.586301 1 5.70334e-10 
3934 1 -24.6377 22.355 1.18419 1 1.84509e-09 
3954 1 -23.257 20.3228 0.785652 1 1.53405e-09 
4324 1 -22.2215 22.3551 1.78207 1 6.40376e-09 
4325 1 -20.8408 20.3229 1.38353 1 1.12954e-08 
4326 1 -19.8053 22.3552 2.37998 1 6.94867e-08 
4152 1 -16.6986 20.3231 0.188016 1 5.69508e-07 
4346 1 -18.4246 20.323 1.98145 1 4.87614e-08 
4675 1 -18.0794 22.3553 0.586536 1 1.30312e-07 
4691 1 -16.0085 20.3231 2.57937 1 4.58638e-07 
4692 1 -15.6631 22.3553 1.18454 1 1.09613e-06 
4694 1 -14.2822 20.3232 0.786011 1 4.46406e-06 
4981 1 -13.2465 22.3553 1.78269 1 1.06245e-05 
5001 1 -11.8652 20.3232 1.38407 1 3.46954e-05 
4999 1 -10.8293 22.3548 2.38116 1 0.000108109 
5003 1 -9.44688 20.3234 1.9822 1 0.000286665 
5212 1 -9.10541 22.3561 0.588676 1 0.000310725 
4880 1 -7.71771 20.3257 0.190021 1 0.00239766 
5213 1 -6.68877 22.36 1.1909 1 0.00392381 
5231 1 -7.02395 20.3228 2.58121 1 0.00326886 
5233 1 -5.29711 20.3352 0.792274 1 0.025547 
5364 1 -4.26441 22.3723 1.80073 1 0.0540692 
5365 1 -2.85252 20.374 1.36694 5 0.77135 
5366 1 -1.81615 22.3883 2.49624 5 1.65562 
5423 1 -0.506546 22.243 0.510748 5 10.2934 
5446 2 0.802395 22.3883 2.49723 5 1.65722 
5528 2 1.83942 20.374 1.3688 5 0.774033 
5529 2 3.25107 22.3722 1.80282 1 0.0541408 
5531 2 4.28364 20.3351 0.794385 1 0.0256839 
5548 2 5.67533 22.3599 1.19334 1 0.00394736 
5711 2 6.70421 20.3255 0.192634 1 0.00241144 
5712 2 8.0919 22.3559 0.591547 1 0.00031308 
5713 2 8.43334 20.3232 1.98513 1 0.000289073 
5717 2 9.8157 22.3547 2.3843 1 0.000109233 
5950 2 10.8517 20.3232 1.38735 1 3.46816e-05 
5972 2 13.2686 20.3232 0.789582 1 4.32723e-06 
5973 2 12.2329 22.3552 1.78613 1 1.06335e-05 
5976 2 14.6494 22.3555 1.18824 1 1.13126e-06 
6287 2 15.685 20.3233 0.19179 1 5.81121e-07 
6289 2 14.9948 20.3233 2.58309 1 4.46e-07 
6292 2 17.4109 20.3234 1.98532 1 5.74204e-08 
6308 2 17.0657 22.3557 0.590387 1 1.22049e-07 
6310 2 18.7916 22.3558 2.38394 1 6.13679e-08 
6672 2 19.8271 20.3235 1.38755 1 1.01988e-08 
6673 2 21.2078 22.3559 1.78618 1 6.75216e-09 
6675 2 22.2433 20.3236 0.789818 1 1.49253e-09 
6692 2 23.6239 22.3559 1.18845 1 3.58144e-09 
7045 2 23.9691 20.3237 2.58342 1 2.97415e-09 
7067 2 24.6595 20.3237 0.192087 1 3.4649e-09 
7068 2 26.0401 22.356 0.590727 1 1.66227e-09 
7069 2 26.3853 20.3237 1.98571 1 2.53418e-09 
816 4 -61.9163 24.3853 1.58228 5 18.5856 
1190 4 -59.5001 24.3853 2.18012 1 9.00821e-16 
1193 4 -57.7743 24.3853 0.386592 1 6.00008e-16 
1584 4 -55.3582 24.3853 0.984434 1 6.02246e-16 
1586 4 -52.942 24.3853 1.58228 1 7.18356e-08 
1977 1 -50.5258 24.3854 2.18012 1 2.27445e-09 
1979 1 -48.7999 24.3855 0.38662 1 4.39573e-09 
2358 1 -46.3837 24.3857 0.984515 1 4e-09 
2371 1 -43.9675 24.3859 1.58243 1 2.7985e-09 
2750 1 -41.5513 24.386 2.18032 1 1.68881e-09 
2753 1 -39.8254 24.3862 0.386836 1 3.09667e-10 
3144 1 -37.4092 24.3863 0.984729 1 2.53853e-09 
3146 1 -34.993 24.3865 1.58261 1 4.70132e-09 
3537 1 -32.5767 24.3867 2.18046 1 2.11365e-09 
3539 1 -30.8509 24.3868 0.386954 1 1.86788e-09 
3918 1 -28.4346 24.387 0.984837 1 9.68321e-10 
3931 1 -26.0184 24.3871 1.58273 1 1.65515e-09 
4307 1 -23.6022 24.3873 2.18061 1 2.82295e-09 
4310 1 -21.8764 24.3874 0.387105 1 1.24731e-08 
4674 1 -19.4602 24.3875 0.98501 1 8.14755e-08 
4676 1 -17.0441 24.3876 1.58293 1 7.47446e-07 
4980 1 -14.6282 24.3876 2.18085 1 6.43936e-06 
4982 1 -12.9025 24.3878 0.387323 1 1.78204e-05 
5197 1 -10.4874 24.3881 0.985094 1 0.00014052 
5210 1 -8.07312 24.3896 1.58223 1 0.00115403 
5347 1 -5.66007 24.3921 2.18169 1 0.0114681 
5350 1 -3.97476 24.393 0.3789 1 0.119002 
5422 1 -1.65699 24.3876 0.986944 5 5.35081 
5445 2 0.643681 24.3879 0.988201 5 5.35639 
5458 2 2.96141 24.393 0.38079 1 0.119793 
5549 2 4.64658 24.392 2.18392 1 0.0115283 
5552 2 7.05964 24.3894 1.58492 1 0.00116081 
5730 2 9.47382 24.388 0.988189 1 0.000141119 
5733 2 11.8889 24.3878 0.390732 1 1.78112e-05 
5974 2 13.6145 24.3877 2.18446 1 6.24443e-06 
5990 2 16.0304 24.3879 1.58673 1 7.25007e-07 
6309 2 18.4465 24.388 0.988944 1 8.96336e-08 
6323 2 20.8626 24.3881 0.391192 1 1.26373e-08 
6693 2 22.5884 24.3882 2.1848 1 1.402e-09 
6696 2 25.0046 24.3882 1.58707 1 5.21146e-09 
563 4 -61.5711 26.4175 0.187311 5 12.3904 
1189 4 -60.8808 26.4175 2.57868 5 6.1952 
1191 4 -59.155 26.4175 0.785153 1 9.97766e-16 
1573 4 -56.7388 26.4175 1.383 1 2.00005e-16 
1344 1 -52.5968 26.4176 0.187311 1 1.15984e-08 
1582 4 -54.3227 26.4175 1.98084 1 1.07435e-08 
1964 1 -51.9065 26.4176 2.57868 1 7.96018e-09 
1967 1 -50.1806 26.4177 0.785164 1 7.40756e-09 
2357 1 -47.7644 26.4179 1.38305 1 9.27418e-10 
2359 1 -45.3482 26.4181 1.98094 1 2.44489e-09 
2102 1 -43.6223 26.4182 0.187468 1 1.18631e-09 
2749 1 -42.932 26.4182 2.57885 1 1.28533e-09 
2751 1 -41.2061 26.4183 0.785364 1 1.71182e-09 
3133 1 -38.7899 26.4185 1.38326 1 1.22516e-09 
2904 1 -34.6478 26.4188 0.187651 1 2.97107e-09 
3142 1 -36.3736 26.4187 1.98116 1 2.0688e-09 
3524 1 -33.9574 26.4188 2.57902 1 2.47362e-09 
3527 1 -32.2316 26.419 0.785505 1 1.08212e-09 
3917 1 -29.8153 26.4191 1.38337 1 1.86633e-09 
3919 1 -27.3991 26.4193 1.98126 1 5.98544e-10 
3662 1 -25.6732 26.4194 0.187769 1 3.00002e-09 
4306 1 -24.9829 26.4195 2.57915 1 4.12319e-09 
4308 1 -23.257 26.4196 0.785652 1 1.64094e-09 
4663 1 -20.8408 26.4197 1.38353 1 1.19287e-08 
4461 1 -16.6986 26.4199 0.188016 1 5.64853e-07 
4672 1 -18.4246 26.4198 1.98145 1 4.87029e-08 
4967 1 -16.0084 26.4199 2.57937 1 4.58821e-07 
4970 1 -14.2822 26.42 0.786012 1 4.4586e-06 
5196 1 -11.8652 26.4201 1.38407 1 3.46765e-05 
5198 1 -9.44688 26.4202 1.9822 1 0.000286706 
5105 1 -7.71771 26.4225 0.190022 1 0.00239847 
5346 1 -7.02395 26.4196 2.58121 1 0.003269 
5348 1 -5.29712 26.4321 0.792274 1 0.0255469 
5413 1 -2.85252 26.4708 1.36694 5 0.771349 
5421 1 -0.506694 26.3946 1.94864 5 6.21226 
5459 2 1.83941 26.4708 1.3688 5 0.774025 
5462 2 4.28364 26.432 0.794387 1 0.0256843 
5550 2 6.01042 26.4194 2.58369 1 0.00329549 
5560 2 6.70421 26.4224 0.192635 1 0.00241141 
5562 2 8.43334 26.42 1.98513 1 0.000289053 
5731 2 10.8517 26.42 1.38735 1 3.47209e-05 
5741 2 13.2686 26.42 0.789582 1 4.33917e-06 
5989 2 15.685 26.4201 0.19179 1 5.81366e-07 
5991 2 14.9948 26.4201 2.58309 1 4.48057e-07 
5994 2 17.4109 26.4202 1.98532 1 5.85992e-08 
6324 2 19.8271 26.4204 1.38755 1 1.00828e-08 
6327 2 22.2433 26.4204 0.789818 1 1.44353e-09 
6694 2 23.9691 26.4205 2.58342 1 3.02617e-09 
6704 2 24.6595 26.4205 0.192087 1 3.59403e-09 
6706 2 26.3853 26.4205 1.98571 1 2.32111e-09 
27 4 -61.9163 30.4821 1.58228 5 18.5856 
1183 4 -60.5356 28.4498 1.18371 5 6.1952 
130 4 -59.5001 30.4821 2.18012 1 1.20202e-15 
133 4 -57.7743 30.4821 0.386592 1 9.01209e-16 
1572 4 -58.1195 28.4498 1.78156 1 1.09838e-15 
370 4 -55.3582 30.4821 0.984434 1 9.03447e-16 
1574 4 -55.7033 28.4498 2.3794 1 6.00001e-16 
371 4 -52.942 30.4821 1.58228 1 7.21692e-08 
1961 4 -53.9775 28.4498 0.585873 1 1.79825e-08 
693 1 -50.5258 30.4822 2.18012 1 1.92485e-09 
1965 1 -51.5613 28.4499 1.18372 1 5.92289e-09 
694 1 -48.7999 30.4824 0.386618 1 5.61718e-09 
2351 1 -49.1451 28.4501 1.78158 1 3.49467e-09 
1031 1 -46.3837 30.4825 0.984515 1 4.54561e-09 
2355 1 -46.7289 28.4502 2.37947 1 2.28235e-09 
2742 1 -45.003 28.4504 0.585982 1 5.58913e-09 
1073 1 -43.9675 30.4827 1.58243 1 2.79993e-09 
2743 1 -42.5868 28.4505 1.1839 1 1.66758e-09 
1430 1 -41.5513 30.4829 2.18032 1 2.63817e-09 
1433 1 -39.8254 30.483 0.386837 1 4.65526e-10 
3132 1 -40.1706 28.4507 1.78179 1 6.64045e-10 
1832 1 -37.4092 30.4832 0.984728 1 2.29532e-09 
3134 1 -37.7543 28.4509 2.37969 1 1.00897e-09 
1833 1 -34.993 30.4833 1.58261 1 4.91462e-09 
3521 1 -36.0285 28.451 0.5862 1 3.49245e-09 
2232 1 -32.5767 30.4835 2.18046 1 3.00778e-09 
3525 1 -33.6123 28.4511 1.18405 1 1.18351e-09 
2233 1 -30.8509 30.4836 0.386953 1 1.98078e-09 
3911 1 -31.196 28.4513 1.78191 1 1.73181e-09 
2590 1 -28.4346 30.4838 0.984838 1 7.66323e-10 
3915 1 -28.7798 28.4515 2.3798 1 1.1665e-09 
4299 1 -27.0539 28.4516 0.586301 1 8.12906e-10 
2632 1 -26.0184 30.4839 1.58273 1 1.63374e-09 
4300 1 -24.6377 28.4518 1.18419 1 1.4464e-09 
4662 1 -22.2215 28.4519 1.78207 1 6.71757e-09 
4664 1 -19.8053 28.452 2.37997 1 7.0539e-08 
4964 1 -18.0794 28.4521 0.586535 1 1.29132e-07 
4968 1 -15.6631 28.4521 1.18454 1 1.10096e-06 
5190 1 -13.2465 28.4521 1.78269 1 1.0597e-05 
5194 1 -10.8293 28.4517 2.38116 1 0.00010804 
5339 1 -9.10541 28.4529 0.588677 1 0.000310827 
5340 1 -6.68877 28.4568 1.1909 1 0.003924 
5412 1 -4.26441 28.4691 1.80073 1 0.0540713 
5414 1 -1.81615 28.4851 2.49624 5 1.65563 
5430 1 -0.506545 28.3398 0.510749 5 10.2935 
5432 2 0.802393 28.4851 2.49723 5 1.6572 
5460 2 3.25107 28.469 1.80282 1 0.0541389 
5466 2 5.67532 28.4567 1.19334 1 0.00394737 
5561 2 8.0919 28.4527 0.591546 1 0.000313022 
5565 2 9.8157 28.4515 2.3843 1 0.000109152 
5742 2 12.2329 28.4521 1.78613 1 1.06264e-05 
5744 2 14.6494 28.4523 1.18824 1 1.13058e-06 
5998 2 17.0657 28.4525 0.590387 1 1.2108e-07 