ITEM: TIMESTEP
0
ITEM: NUMBER OF ATOMS
22386
ITEM: BOX BOUNDS ss pp pp
-61.5804 124.07
0 37.3352
0 35.2
ITEM: ATOMS id type x y z c_cna c_csd 
1 4 -61.0825 0.637919 0.894151 5 18.5856 
10 4 -60.5847 2.62913 2.30215 5 18.5856 
24 4 -58.8423 0.88682 1.95015 1 1.39832e-15 
25 4 -56.8511 1.38462 0.542151 1 1.99805e-16 
118 4 -54.611 1.63353 1.59815 1 7.99402e-16 
144 4 -52.3709 1.88243 2.65415 1 3.16004e-08 
236 4 -52.6198 2.13133 0.190151 1 2.72041e-08 
331 1 -50.3797 2.38032 1.2461 1 1.17914e-08 
3421 1 -50.6286 0.140182 2.30209 1 1.20386e-08 
332 1 -48.6374 0.638123 0.894026 1 1.10458e-08 
333 1 -48.1396 2.62936 2.30201 1 1.27188e-08 
372 1 -46.3973 0.887179 1.94988 1 5.07758e-09 
652 1 -44.4062 1.38515 0.541755 1 1.15385e-08 
653 1 -42.1661 1.63416 1.59762 1 8.25144e-09 
1055 1 -39.926 1.88312 2.65351 1 2.01479e-09 
1178 1 -40.1749 2.13207 0.189513 1 4.89491e-09 
1056 1 -37.9348 2.38105 1.24541 1 6.94625e-09 
1058 1 -36.1926 0.638854 0.893331 1 1.22893e-08 
4624 1 -38.1837 0.1409 2.30142 1 5.22926e-09 
1492 1 -35.6947 2.63006 2.30132 1 1.68084e-08 
1542 1 -33.9525 0.887897 1.9492 1 2.32068e-08 
1543 1 -31.9614 1.38589 0.541115 1 5.40441e-08 
2059 1 -29.7213 1.63485 1.59702 1 5.59219e-08 
2106 1 -27.4811 1.88372 2.65291 1 8.96157e-08 
2216 1 -27.7304 2.13293 0.188977 1 1.94754e-07 
2669 1 -25.4902 2.38176 1.24491 1 2.02638e-07 
6241 1 -25.7388 0.141459 2.30088 1 1.71242e-07 
2670 1 -23.748 0.639566 0.892891 1 4.04182e-07 
2671 1 -23.2497 2.63041 2.3008 1 4.6677e-07 
2716 1 -21.5074 0.888103 1.94875 1 8.40639e-07 
3280 1 -19.5169 1.38645 0.540933 1 2.40669e-06 
3281 1 -17.2758 1.63435 1.59679 1 5.83194e-06 
4010 1 -15.2862 2.13321 0.189373 1 1.59842e-05 
3887 1 -15.0338 1.88154 2.65217 1 2.01602e-05 
3888 1 -13.0437 2.38009 1.24504 1 4.30881e-05 
6940 1 -13.2907 0.137866 2.30057 1 0.000160932 
3890 1 -11.3036 0.635799 0.89448 1 0.00115796 
4448 1 -10.7983 2.62626 2.29895 1 0.000266558 
4498 1 -9.06502 0.878817 1.95177 1 0.00690746 
4499 1 -7.0982 1.37409 0.548904 1 0.04742 
5059 1 -4.89356 1.60999 1.60782 1 0.231322 
5106 1 -2.72585 1.81506 2.65369 5 1.24371 
5216 1 -3.02697 2.11392 0.193511 5 3.18499 
5667 1 -0.902556 1.87563 1.07615 5 4.17047 
9406 2 1.2494 1.8161 1.96217 5 1.24856 
9404 2 3.14123 1.35244 0.543906 1 0.13283 
9997 2 5.35665 1.12119 1.60561 1 0.033446 
9998 2 7.33317 0.628499 0.203778 1 0.00414377 
10003 2 7.58821 0.880359 2.66429 1 0.00693458 
10004 2 9.32144 2.62795 2.31717 1 0.000266 
10599 2 9.57225 0.384489 1.2599 1 0.000916817 
10597 2 11.3142 2.13009 0.909697 1 7.38117e-05 
10601 2 11.8138 0.139686 2.31561 1 0.000161423 
10605 2 13.5569 1.88347 1.96405 1 1.98791e-05 
11198 2 15.5482 1.38605 0.556457 1 1.12426e-05 
11200 2 17.7895 1.13845 1.61196 1 3.19261e-06 
11797 2 19.7807 0.640828 0.204172 1 1.96204e-06 
11802 2 20.0305 0.890483 2.66778 1 8.71459e-07 
11799 2 21.7728 2.63291 2.31583 1 4.89339e-07 
11800 2 22.0214 0.392565 1.25998 1 5.50433e-07 
11801 2 23.7638 2.13504 0.907999 1 3.1142e-07 
12398 2 24.2619 0.144118 2.31593 1 1.71993e-07 
12402 2 26.0042 1.88648 1.96393 1 1.01507e-07 
12400 2 27.9952 1.38867 0.555985 1 8.4157e-08 
12997 2 30.2354 1.13996 1.61196 1 2.86259e-08 
11 4 -60.3358 4.86925 1.24615 5 18.5856 
13 4 -58.5934 3.12693 0.894151 1 2.00005e-16 
97 4 -58.0956 5.11815 2.30215 1 1.2e-15 
117 4 -56.3533 3.37584 1.95015 1 1.1e-15 
119 4 -54.3621 3.87364 0.542151 1 3.00005e-16 
296 4 -52.122 4.12254 1.59815 1 4.514e-08 
329 1 -49.8819 4.37156 2.65408 1 5.11264e-09 
464 1 -50.1308 4.62044 0.190089 1 9.36575e-09 
602 1 -47.8907 4.8695 1.24599 1 9.06888e-09 
603 1 -46.1484 3.12733 0.893878 1 3.26265e-09 
604 1 -45.6506 5.11856 2.30187 1 1.12332e-08 
650 1 -43.9083 3.37637 1.94972 1 9.89099e-09 
1008 1 -41.9172 3.8743 0.54159 1 9.3656e-09 
1009 1 -39.6771 4.12326 1.59748 1 4.34598e-09 
1491 1 -37.437 4.37224 2.65338 1 1.12232e-08 
1642 1 -37.686 4.62119 0.189387 1 1.03099e-08 
1493 1 -35.4459 4.87022 1.2453 1 1.47568e-08 
1495 1 -33.7037 3.12807 0.893225 1 3.70856e-08 
2008 1 -33.2058 5.11926 2.30118 1 3.08499e-08 
2058 1 -31.4635 3.37705 1.94911 1 3.67097e-08 
2060 1 -29.4726 3.87507 0.541042 1 1.09526e-07 
2619 1 -27.2324 4.12399 1.59696 1 1.32275e-07 
2667 1 -24.992 4.37271 2.65284 1 2.80498e-07 
2808 1 -25.2416 4.6221 0.188946 1 4.13764e-07 
3229 1 -23.0013 4.87083 1.2449 1 6.12259e-07 
3230 1 -21.259 3.12864 0.892922 1 1.16882e-06 
3231 1 -20.7606 5.11926 2.30079 1 1.63942e-06 
3278 1 -19.018 3.37687 1.94879 1 3.31169e-06 
3840 1 -17.0278 3.87541 0.541152 1 8.49872e-06 
3841 1 -14.7853 4.12281 1.59689 1 4.16746e-05 
4598 1 -12.7955 4.62236 0.189679 1 0.000154801 
4447 1 -12.5404 4.36924 2.65194 1 0.000220988 
4449 1 -10.548 4.8681 1.24516 1 0.000831245 
4451 1 -8.80499 3.12772 0.892183 1 0.00243305 
5008 1 -8.29264 5.11375 2.2976 1 0.00427089 
5058 1 -6.54115 3.37969 1.93729 1 0.0223826 
5060 1 -4.49559 3.90752 0.526923 1 0.483967 
5619 1 -2.03624 3.98987 1.59265 5 2.38492 
8876 2 0.434062 3.79439 0.539806 5 1.10582 
9403 2 2.77925 3.62575 1.63284 1 0.180161 
9405 2 4.8175 3.12208 0.221604 1 0.0142792 
9416 2 5.06438 3.38105 2.67866 1 0.0223988 
9417 2 6.81583 5.11525 2.3184 1 0.00426399 
10001 2 7.07176 2.87519 1.26742 1 0.00229104 
9999 2 8.81566 4.61711 0.910601 1 0.0010559 
10013 2 11.0636 4.37103 1.96421 1 0.000219733 
10603 2 13.0565 3.87386 0.556675 1 6.49286e-05 
10606 2 15.2993 3.62664 1.61187 1 1.51106e-05 
11197 2 17.2909 3.12915 0.204246 1 5.85227e-06 
11207 2 17.5411 3.37908 2.66758 1 3.37288e-06 
11204 2 19.2837 5.12159 2.31569 1 1.7103e-06 
11205 2 19.532 2.88114 1.25994 1 1.7569e-06 
11206 2 21.2746 4.62372 0.90795 1 9.76393e-07 
11806 2 25.5062 3.87749 0.555996 1 1.86452e-07 
11808 2 23.5151 4.37532 1.96388 1 2.84167e-07 
12399 2 27.7465 3.62886 1.61194 1 6.78184e-08 
12401 2 29.7376 3.13106 0.203987 1 5.30118e-08 
12413 2 29.9867 3.38013 2.66794 1 3.48256e-08 
96 4 -59.838 6.86046 2.65415 5 12.3904 
198 4 -60.0869 7.10936 0.190151 5 12.3904 
98 4 -57.8467 7.35826 1.24615 1 7.00002e-16 
100 4 -56.1044 5.61595 0.894151 1 4.00005e-16 
268 4 -55.6066 7.60716 2.30215 1 1.1e-15 
295 4 -53.8643 5.86485 1.95015 1 1.87796e-09 
297 4 -51.8731 6.36266 0.542151 1 7.45067e-08 
560 1 -49.633 6.61169 1.59805 1 6.57393e-09 
600 1 -47.3929 6.86073 2.65395 1 2.81834e-09 
764 1 -47.6418 7.10964 0.189956 1 2.48169e-09 
957 1 -45.4017 7.3587 1.24584 1 8.36279e-09 
958 1 -43.6594 5.6165 0.893722 1 6.02683e-09 
959 1 -43.1616 7.60771 2.30169 1 9.93708e-09 
1006 1 -41.4194 5.86548 1.94958 1 5.75585e-09 
1444 1 -39.4282 6.36341 0.541454 1 1.00248e-08 
1445 1 -37.1882 6.6124 1.59735 1 1.26749e-08 
2007 1 -34.9481 6.86143 2.65324 1 1.17147e-08 
2178 1 -35.1971 7.11037 0.189267 1 2.66286e-08 
2009 1 -32.957 7.35943 1.24515 1 4.26351e-08 
2011 1 -31.2148 5.61724 0.893105 1 6.27685e-08 
2568 1 -30.7168 7.60839 2.30106 1 4.21919e-08 
2618 1 -28.9746 5.86619 1.94901 1 7.40346e-08 
2620 1 -26.9837 6.36427 0.540976 1 2.54056e-07 
3179 1 -24.7434 6.61306 1.59689 1 3.00951e-07 
3227 1 -22.5028 6.86164 2.65275 1 7.4504e-07 
3392 1 -22.7528 7.11129 0.188936 1 1.05666e-06 
3789 1 -20.5122 7.35987 1.24488 1 1.63602e-06 
3790 1 -18.7704 5.61757 0.892973 1 4.35394e-06 
3791 1 -18.271 7.60799 2.30061 1 3.588e-06 
3838 1 -16.5291 5.86525 1.94878 1 1.50002e-05 
4400 1 -14.5405 6.36395 0.541285 1 8.1361e-05 
4401 1 -12.2991 6.60991 1.59697 1 0.000469916 
5007 1 -10.0578 6.85436 2.6514 1 0.0024953 
5178 1 -10.3164 7.10966 0.191311 1 0.00301379 
5009 1 -8.07878 7.35279 1.24614 1 0.0160886 
5011 1 -6.28843 5.61695 0.891503 1 0.0178842 
5568 1 -5.85896 7.58988 2.30475 1 0.0938497 
5618 1 -4.00498 5.8378 1.94405 1 0.114177 
5620 1 -1.99997 6.18743 0.516158 5 3.81325 
8427 2 0.0380296 7.96007 0.284688 5 1.85276 
8875 2 0.268292 5.97622 1.62979 5 4.55934 
8877 2 2.29275 5.58067 0.213295 1 0.0547516 
8881 2 2.19572 7.81413 1.25755 1 0.44677 
8883 2 2.52811 5.83891 2.67179 1 0.11457 
8884 2 4.38211 7.59116 2.31117 1 0.0939919 
9414 2 4.55547 5.35699 1.26676 1 0.0158369 
9412 2 6.34675 7.09828 0.908922 1 0.0135615 
9432 2 8.58097 6.856 1.96466 1 0.00250255 
10011 2 10.5685 6.36002 0.557277 1 0.000335487 
10014 2 12.8104 6.11396 1.61201 1 7.23239e-05 
10032 2 14.5521 7.85762 1.26036 1 1.21476e-05 
10602 2 14.801 5.61704 0.204297 1 2.04962e-05 
10618 2 15.0522 5.86727 2.66747 1 1.51779e-05 
10615 2 16.7941 7.61015 2.31572 1 3.60463e-06 
10616 2 17.0425 5.36947 1.25985 1 6.02719e-06 
10617 2 18.785 7.11229 0.907974 1 2.5428e-06 
11219 2 23.017 6.36625 0.556003 1 5.24001e-07 
11221 2 21.0259 6.8641 1.96381 1 7.98108e-07 
11805 2 25.2574 6.11772 1.61195 1 1.60824e-07 
11807 2 27.2485 5.61993 0.204019 1 1.06776e-07 
11823 2 26.9997 7.86012 1.25999 1 9.93087e-08 
11825 2 27.4977 5.86908 2.66793 1 7.41161e-08 
11826 2 29.2399 7.61142 2.31597 1 3.91963e-08 
12409 2 31.231 7.11359 0.908003 1 2.97002e-08 
12411 2 29.4887 5.37123 1.25998 1 3.99582e-08 
88 4 -59.5891 9.10057 1.59815 5 6.1952 
267 4 -57.3489 9.34947 2.65415 1 1.1004e-15 
411 4 -57.5978 9.59838 0.190151 1 2.00006e-16 
269 4 -55.3577 9.84728 1.24615 1 5.99004e-16 
271 4 -53.6154 8.10497 0.894151 1 6.28789e-09 
525 4 -53.1176 10.0962 2.30215 1 1.59662e-08 
559 1 -51.3753 8.35391 1.9501 1 1.9603e-08 
528 1 -51.1264 10.594 0.8941 1 1.69298e-08 
561 1 -49.3841 8.85183 0.542027 1 6.36956e-09 
909 1 -47.144 9.10087 1.59792 1 3.45076e-09 
955 1 -44.9039 9.34992 2.6538 1 1.30241e-08 
1138 1 -45.1528 9.59885 0.189825 1 8.58836e-09 
1393 1 -42.9128 9.84787 1.24569 1 1.21526e-08 
1394 1 -41.1705 8.10565 0.893574 1 7.23298e-09 
1395 1 -40.6727 10.0968 2.30156 1 5.41696e-09 
1442 1 -38.9304 8.35462 1.94943 1 7.40492e-09 
1910 1 -38.6816 10.5948 0.893431 1 8.04515e-09 
1960 1 -36.9393 8.85256 0.541334 1 1.24664e-08 
1961 1 -34.6992 9.1016 1.59722 1 1.43697e-08 
2567 1 -32.4591 9.35061 2.65309 1 3.28846e-08 
2755 1 -32.7082 9.5996 0.189118 1 6.06971e-08 
2569 1 -30.4681 9.8486 1.24504 1 6.90791e-08 
2571 1 -28.7259 8.10644 0.89302 1 1.43749e-07 
3128 1 -28.2278 10.0975 2.30095 1 7.34968e-08 
3131 1 -26.2369 10.5956 0.892955 1 2.30711e-07 
3178 1 -26.4856 8.35529 1.94893 1 1.45388e-07 
3180 1 -24.4947 8.85343 0.540922 1 4.7086e-07 
3739 1 -22.2541 9.10209 1.59683 1 8.74516e-07 
3787 1 -20.013 9.35046 2.65259 1 3.26792e-06 
3970 1 -20.2635 9.60051 0.188958 1 3.15213e-06 
4349 1 -18.022 9.84881 1.2448 1 1.07503e-05 
4350 1 -16.2807 8.1066 0.89295 1 1.07307e-05 
4351 1 -15.7791 10.0964 2.30026 1 4.97275e-05 
4398 1 -14.0378 8.35387 1.94811 1 3.47138e-05 
4910 1 -13.7867 10.5954 0.892883 1 0.000205094 
4960 1 -12.0466 8.85415 0.541261 1 0.000192467 
4961 1 -9.79592 9.10113 1.59411 1 0.00129496 
5567 1 -7.53975 9.34988 2.64493 1 0.00867077 
5734 1 -7.791 9.60663 0.188057 1 0.0115503 
5569 1 -5.51152 9.86415 1.23751 1 0.0974367 
5571 1 -3.94676 8.08095 0.900885 1 0.732153 
6078 1 -3.16762 10.0849 2.30066 5 0.903456 
6081 1 -0.716334 10.1482 1.05847 5 5.08177 
6127 1 -1.8092 8.16702 1.89934 5 3.24248 
8432 2 1.69035 10.0859 2.31534 5 0.906635 
8879 2 3.7943 9.60079 0.919349 1 0.0581982 
8894 2 6.0628 9.35132 1.97106 1 0.00870772 
9429 2 9.81234 10.5915 0.206362 1 0.000647965 
9430 2 8.06986 8.84904 0.562759 1 0.00108702 
9433 2 10.3158 8.60224 1.6145 1 0.000198176 
9455 2 12.0577 10.3451 1.26102 1 0.000205756 
10010 2 12.3098 8.10489 0.20594 1 5.06968e-05 
10034 2 12.5609 8.35573 2.66809 1 3.46792e-05 
10031 2 14.3022 10.0984 2.31597 1 5.03319e-05 
10033 2 16.2942 9.60057 0.908223 1 1.44155e-05 
10636 2 20.5273 8.85492 0.556036 1 1.87313e-06 
10638 2 18.5361 9.35274 1.96385 1 3.43676e-06 
10637 2 22.2699 10.5974 0.204081 1 8.80748e-07 
11218 2 22.7681 8.60655 1.61192 1 4.85064e-07 
11220 2 24.7593 8.10873 0.204053 1 3.52507e-07 
11242 2 24.5105 10.3489 1.26 1 2.55775e-07 
11244 2 25.0087 8.358 2.66791 1 1.66259e-07 
11245 2 26.7509 10.1003 2.31596 1 8.70775e-08 
11821 2 28.742 9.60251 0.908015 1 5.48636e-08 
11849 2 30.9822 9.35375 1.96399 1 2.18037e-08 
86 4 -61.3314 10.8429 1.95015 5 24.7808 
241 4 -61.0825 13.083 0.894151 5 18.5856 
251 4 -59.3402 11.3407 0.542151 1 2.00205e-16 
249 4 -58.8423 13.3319 1.95015 1 1.1e-15 
252 4 -57.1 11.5896 1.59815 1 1.0006e-15 
524 4 -54.8599 11.8385 2.65415 1 1.0996e-15 
698 4 -55.1088 12.0874 0.190151 1 4.00006e-16 
526 4 -52.8687 12.3363 1.24615 1 2.07693e-08 
868 1 -50.6286 12.5853 2.30209 1 1.20394e-08 
908 1 -48.8863 10.8431 1.95001 1 5.88289e-09 
871 1 -48.6374 13.0832 0.894026 1 1.10458e-08 
910 1 -46.8951 11.341 0.541918 1 3.3257e-09 
1342 1 -46.3973 13.3323 1.94988 1 5.0776e-09 
1343 1 -44.655 11.5901 1.59778 1 9.23314e-09 
1391 1 -42.4149 11.8391 2.65365 1 2.05565e-09 
1589 1 -42.6639 12.088 0.18967 1 1.54094e-08 
1909 1 -40.4238 12.337 1.24555 1 9.63496e-09 
1911 1 -38.1837 12.586 2.30142 1 5.22927e-09 
1958 1 -36.4415 10.8438 1.94931 1 9.62777e-09 
2470 1 -36.1926 13.0839 0.893331 1 1.22893e-08 
2518 1 -33.9525 13.333 1.9492 1 2.32068e-08 
2520 1 -34.4504 11.3418 0.54121 1 2.30312e-08 
2521 1 -32.2103 11.5908 1.59709 1 4.11674e-08 
3127 1 -29.9701 11.8397 2.65299 1 4.0493e-08 
3326 1 -30.2192 12.0888 0.189034 1 8.87126e-08 
3129 1 -27.9791 12.3378 1.24497 1 1.15639e-07 
3688 1 -25.7388 12.5865 2.30088 1 1.71242e-07 
3691 1 -23.748 13.0846 0.892891 1 4.04182e-07 
3738 1 -23.9964 10.8443 1.94884 1 3.51046e-07 
3740 1 -22.0057 11.3425 0.540881 1 8.56769e-07 
4298 1 -21.5074 13.3332 1.94875 1 8.40639e-07 
4299 1 -19.7648 11.5909 1.59675 1 1.69473e-06 
4545 1 -17.7745 12.0894 0.189009 1 4.91158e-06 
4347 1 -17.5233 11.8387 2.65242 1 6.9207e-06 
4909 1 -15.5329 12.3369 1.24487 1 2.1988e-05 
4911 1 -13.2907 12.5829 2.30057 1 0.000160932 
4958 1 -11.5387 10.8415 1.94783 1 0.000854497 
5470 1 -11.3036 13.0809 0.89448 1 0.00115796 
5518 1 -9.06502 13.3239 1.95177 1 0.00690746 
5520 1 -9.54034 11.3416 0.541753 1 0.00353049 
5521 1 -7.28009 11.5868 1.59728 1 0.0111665 
6077 1 -5.01251 11.8229 2.65568 1 0.0326249 
6220 1 -5.26301 12.0784 0.189937 1 0.0488041 
6079 1 -2.99442 12.3106 1.249 5 4.30483 
6508 1 -0.738395 12.2526 2.308 5 4.62734 
8428 2 1.26773 12.0287 0.892706 1 0.185434 
8437 2 3.5356 11.8241 1.96028 1 0.0327196 
8891 2 7.33317 13.0736 0.203778 1 0.00414377 
8892 2 5.55529 11.3327 0.557167 1 0.00834962 
8895 2 7.81035 11.0885 1.61341 1 0.00279456 
8916 2 7.58821 13.3254 2.66429 1 0.00693458 
8914 2 9.57225 12.8296 1.2599 1 0.000916817 
9457 2 10.0618 10.8432 2.66833 1 0.000859386 
9454 2 11.8138 12.5848 2.31561 1 0.000161423 
9456 2 13.8046 12.0877 0.908411 1 3.18692e-05 
10058 2 18.0376 11.3432 0.556166 1 3.89128e-06 
10060 2 16.0464 11.8408 1.96391 1 6.82654e-06 
10059 2 19.7807 13.0859 0.204172 1 1.96204e-06 
10635 2 20.2787 11.0952 1.61193 1 1.11965e-06 
10667 2 22.0214 12.8376 1.25998 1 5.50433e-07 
10669 2 22.5195 10.8469 2.66786 1 3.62315e-07 
10670 2 24.2619 12.5892 2.31593 1 1.71993e-07 
11240 2 26.2529 12.0913 0.90802 1 1.32543e-07 
11274 2 28.4932 11.8427 1.96397 1 4.55937e-08 
11847 2 30.4843 11.3449 0.556009 1 3.42332e-08 
242 4 -60.5847 15.0742 2.30215 5 18.5856 
485 4 -58.5934 15.572 0.894151 1 5.00005e-16 
502 4 -56.8511 13.8297 0.542151 1 3.00005e-16 
500 4 -56.3533 15.8209 1.95015 1 1.1e-15 
503 4 -54.611 14.0786 1.59815 1 8.00001e-16 
867 4 -52.3709 14.3275 2.65415 1 3.16001e-08 
1059 4 -52.6198 14.5764 0.190151 1 2.72038e-08 
869 1 -50.3797 14.8254 1.2461 1 1.17915e-08 
1295 1 -48.1396 15.0744 2.30201 1 1.27189e-08 
1298 1 -46.1484 15.5724 0.893878 1 3.26265e-09 
1344 1 -44.4062 13.8302 0.541755 1 1.15385e-08 
1858 1 -43.9083 15.8214 1.94972 1 9.89095e-09 
1859 1 -42.1661 14.0792 1.59762 1 8.25144e-09 
1907 1 -39.926 14.3282 2.65351 1 2.0148e-09 
2111 1 -40.1749 14.5772 0.189513 1 4.89492e-09 
2469 1 -37.9348 14.8261 1.24541 1 6.94627e-09 
2471 1 -35.6947 15.0751 2.30132 1 1.68085e-08 
3030 1 -33.7037 15.5731 0.893225 1 3.70856e-08 
3078 1 -31.4635 15.8221 1.94911 1 3.67097e-08 
3080 1 -31.9614 13.831 0.541115 1 5.40441e-08 
3081 1 -29.7213 14.0799 1.59702 1 5.59219e-08 
3687 1 -27.4811 14.3288 2.65291 1 8.96157e-08 
3689 1 -25.4902 14.8268 1.24491 1 2.02638e-07 
3891 1 -27.7304 14.578 0.188977 1 1.94754e-07 
4248 1 -23.2497 15.0755 2.3008 1 4.6677e-07 
4251 1 -21.259 15.5737 0.892922 1 1.16882e-06 
4300 1 -19.5169 13.8315 0.540933 1 2.40669e-06 
4858 1 -19.018 15.8219 1.94879 1 3.31169e-06 
4859 1 -17.2758 14.0794 1.59679 1 5.83194e-06 
5111 1 -15.2862 14.5783 0.189373 1 1.59842e-05 
4907 1 -15.0338 14.3266 2.65217 1 2.01602e-05 
5469 1 -13.0437 14.8252 1.24504 1 4.30881e-05 
5471 1 -10.7983 15.0713 2.29895 1 0.000266558 
5980 1 -8.80499 15.5728 0.892183 1 0.00243305 
6028 1 -6.54115 15.8248 1.93729 1 0.0223826 
6030 1 -7.0982 13.8192 0.548904 1 0.04742 
6031 1 -4.89356 14.0551 1.60782 1 0.231322 
6507 1 -2.72585 14.2601 2.65369 5 1.24371 
6621 1 -3.02697 14.559 0.193511 5 3.18499 
6509 1 -0.902556 14.3207 1.07615 5 4.17047 
8062 2 1.2494 14.2612 1.96217 5 1.24856 
8434 2 4.8175 15.5672 0.221604 1 0.0142792 
8435 2 3.14123 13.7975 0.543906 1 0.13283 
8438 2 5.35665 13.5663 1.60561 1 0.033446 
8452 2 5.06438 15.8261 2.67866 1 0.0223988 
8450 2 7.07176 15.3203 1.26742 1 0.00229104 
8913 2 9.32144 15.073 2.31717 1 0.000266 
8915 2 11.3142 14.5752 0.909697 1 7.38117e-05 
9488 2 15.5482 13.8311 0.556457 1 1.12426e-05 
9490 2 13.5569 14.3285 1.96405 1 1.98791e-05 
9489 2 17.2909 15.5742 0.204246 1 5.85227e-06 
9533 2 17.5411 15.8242 2.66758 1 3.37288e-06 
10057 2 17.7895 13.5835 1.61196 1 3.19261e-06 
10095 2 19.532 15.3262 1.25994 1 1.7569e-06 
10097 2 20.0305 13.3356 2.66778 1 8.71459e-07 
10098 2 21.7728 15.078 2.31583 1 4.89339e-07 
10665 2 23.7638 14.5801 0.907999 1 3.1142e-07 
10705 2 26.0042 14.3316 1.96393 1 1.01507e-07 
11272 2 27.9952 13.8338 0.555985 1 8.4157e-08 
11271 2 29.7376 15.5761 0.203987 1 5.30118e-08 
11275 2 30.2354 13.585 1.61196 1 2.86259e-08 
11315 2 29.9867 15.8252 2.66794 1 3.48256e-08 
484 4 -60.3358 17.3143 1.24615 5 18.5856 
486 4 -58.0956 17.5632 2.30215 1 1.1e-15 
814 4 -56.1044 18.061 0.894151 1 5.00005e-16 
836 4 -53.8643 18.3099 1.95015 1 1.87796e-09 
838 4 -54.3621 16.3187 0.542151 1 6.00005e-16 
839 4 -52.122 16.5676 1.59815 1 4.51526e-08 
1294 1 -49.8819 16.8166 2.65408 1 5.11227e-09 
1496 1 -50.1308 17.0655 0.190089 1 9.36489e-09 
1296 1 -47.8907 17.3146 1.24599 1 9.06885e-09 
1808 1 -45.6506 17.5636 2.30187 1 1.12332e-08 
1811 1 -43.6594 18.0616 0.893722 1 6.02685e-09 
1860 1 -41.9172 16.3194 0.54159 1 9.36558e-09 
2418 1 -41.4194 18.3106 1.94958 1 5.75584e-09 
2419 1 -39.6771 16.5683 1.59748 1 4.34598e-09 
2467 1 -37.437 16.8173 2.65338 1 1.12232e-08 
2675 1 -37.686 17.0663 0.189387 1 1.03099e-08 
3029 1 -35.4459 17.3153 1.2453 1 1.47568e-08 
3031 1 -33.2058 17.5643 2.30118 1 3.08498e-08 
3590 1 -31.2148 18.0623 0.893105 1 6.27685e-08 
3638 1 -28.9746 18.3113 1.94901 1 7.40346e-08 
3640 1 -29.4726 16.3202 0.541042 1 1.09526e-07 
3641 1 -27.2324 16.5691 1.59696 1 1.32275e-07 
4247 1 -24.992 16.8178 2.65284 1 2.80498e-07 
4249 1 -23.0013 17.3159 1.2449 1 6.12259e-07 
4452 1 -25.2416 17.0672 0.188946 1 4.13764e-07 
4808 1 -20.7606 17.5643 2.30079 1 1.63942e-06 
4811 1 -18.7704 18.0626 0.892973 1 4.35394e-06 
4860 1 -17.0278 16.3205 0.541152 1 8.49872e-06 
5418 1 -16.5291 18.3103 1.94878 1 1.50002e-05 
5419 1 -14.7853 16.5679 1.59689 1 4.16746e-05 
5671 1 -12.7955 17.0674 0.189679 1 0.000154801 
5467 1 -12.5404 16.8143 2.65194 1 0.000220988 
5979 1 -10.548 17.3132 1.24516 1 0.000831245 
5981 1 -8.29264 17.5588 2.2976 1 0.00427089 
6410 1 -6.28843 18.062 0.891503 1 0.0178842 
6458 1 -4.00498 18.2829 1.94405 1 0.114177 
6460 1 -4.49559 16.3526 0.526923 1 0.483967 
6461 1 -2.03624 16.4349 1.59265 5 2.38492 
6808 1 -1.99997 18.6325 0.516158 5 3.81325 
7772 2 0.268292 18.4213 1.62979 5 4.55934 
8059 2 2.29275 18.0257 0.213295 1 0.0547516 
8060 2 0.434062 16.2395 0.539806 5 1.10582 
8063 2 2.77925 16.0708 1.63284 1 0.180161 
8070 2 2.52811 18.284 2.67179 1 0.11457 
8068 2 4.55547 17.8021 1.26676 1 0.0158369 
8449 2 6.81583 17.5603 2.3184 1 0.00426399 
8451 2 8.81566 17.0622 0.910601 1 0.0010559 
8941 2 12.8104 18.559 1.61201 1 7.23239e-05 
8942 2 13.0565 16.3189 0.556675 1 6.49286e-05 
8944 2 11.0636 16.8161 1.96421 1 0.000219733 
8943 2 14.801 18.0621 0.204297 1 2.04962e-05 
8982 2 15.0522 18.3124 2.66747 1 1.51779e-05 
9487 2 15.2993 16.0717 1.61187 1 1.51106e-05 
9531 2 17.0425 17.8146 1.25985 1 6.02719e-06 
9534 2 19.2837 17.5667 2.31569 1 1.7103e-06 
10093 2 21.2746 17.0688 0.90795 1 9.76393e-07 
10141 2 23.5151 16.8204 1.96388 1 2.84167e-07 
10142 2 25.2574 18.5628 1.61195 1 1.60824e-07 
10703 2 25.5062 16.3226 0.555996 1 1.86452e-07 
10702 2 27.2485 18.065 0.204019 1 1.06776e-07 
10706 2 27.7465 16.0739 1.61194 1 6.78184e-08 
10752 2 27.4977 18.3142 2.66793 1 7.41161e-08 
10750 2 29.4887 17.8163 1.25998 1 3.99582e-08 
482 4 -59.838 19.3055 2.65415 5 12.3904 
607 4 -60.0869 19.5544 0.190151 5 12.3904 
813 4 -57.8467 19.8033 1.24615 1 8.00003e-16 
815 4 -55.6066 20.0522 2.30215 1 1.1e-15 
1228 4 -53.6154 20.55 0.894151 1 6.28786e-09 
1256 1 -51.3753 20.799 1.9501 1 1.96032e-08 
1258 4 -51.8731 18.8077 0.542151 1 7.45051e-08 
1259 1 -49.633 19.0568 1.59805 1 6.57402e-09 
1765 1 -49.3841 21.2969 0.542027 1 6.36956e-09 
1807 1 -47.3929 19.3058 2.65395 1 2.81837e-09 
2012 1 -47.6418 19.5547 0.189956 1 2.48173e-09 
1809 1 -45.4017 19.8038 1.24584 1 8.36281e-09 
2368 1 -43.1616 20.0528 2.30169 1 9.93709e-09 
2371 1 -41.1705 20.5507 0.893574 1 7.23298e-09 
2420 1 -39.4282 18.8085 0.541454 1 1.00248e-08 
2978 1 -38.9304 20.7997 1.94943 1 7.40491e-09 
2979 1 -37.1882 19.0575 1.59735 1 1.26749e-08 
2980 1 -36.9393 21.2976 0.541334 1 1.24665e-08 
3027 1 -34.9481 19.3065 2.65324 1 1.17147e-08 
3235 1 -35.1971 19.5555 0.189267 1 2.66286e-08 
3589 1 -32.957 19.8045 1.24515 1 4.26351e-08 
3591 1 -30.7168 20.0535 2.30106 1 4.21918e-08 
4150 1 -28.7259 20.5515 0.89302 1 1.43749e-07 
4198 1 -26.4856 20.8004 1.94893 1 1.45388e-07 
4200 1 -26.9837 18.8094 0.540976 1 2.54056e-07 
4201 1 -24.7434 19.0581 1.59689 1 3.00951e-07 
4761 1 -24.4947 21.2985 0.540922 1 4.7086e-07 
4807 1 -22.5028 19.3067 2.65275 1 7.4504e-07 
4809 1 -20.5122 19.805 1.24488 1 1.63602e-06 
5012 1 -22.7528 19.5564 0.188936 1 1.05666e-06 
5368 1 -18.271 20.0531 2.30061 1 3.588e-06 
5371 1 -16.2807 20.5517 0.89295 1 1.07307e-05 
5420 1 -14.5405 18.809 0.541285 1 8.1361e-05 
5928 1 -14.0378 20.7989 1.94811 1 3.47138e-05 
5929 1 -12.2991 19.055 1.59697 1 0.000469916 
5930 1 -12.0466 21.2992 0.541261 1 0.000192467 
5977 1 -10.0578 19.2994 2.6514 1 0.0024953 
6170 1 -10.3164 19.5547 0.191311 1 0.00301379 
6409 1 -8.07878 19.7979 1.24614 1 0.0160886 
6411 1 -5.85896 20.035 2.30475 1 0.0938497 
6758 1 -3.94676 20.526 0.900885 1 0.732153 
6806 1 -1.8092 20.6121 1.89934 5 3.24248 
7771 2 0.0380296 20.4051 0.284688 5 1.85276 
7775 2 2.19572 20.2592 1.25755 1 0.44677 
8067 2 4.38211 20.0362 2.31117 1 0.0939919 
8069 2 6.34675 19.5434 0.908922 1 0.0135615 
8083 2 8.06986 21.2941 0.562759 1 0.00108702 
8470 2 10.3158 21.0473 1.6145 1 0.000198176 
8471 2 10.5685 18.8051 0.557277 1 0.000335487 
8473 2 8.58097 19.3011 1.96466 1 0.00250255 
8472 2 12.3098 20.55 0.20594 1 5.06968e-05 
8505 2 12.5609 20.8008 2.66809 1 3.46792e-05 
8980 2 14.5521 20.3027 1.26036 1 1.21476e-05 
8983 2 16.7941 20.0552 2.31572 1 3.60463e-06 
9529 2 18.785 19.5574 0.907974 1 2.5428e-06 
9579 2 20.5273 21.3 0.556036 1 1.87313e-06 
9581 2 21.0259 19.3092 1.96381 1 7.98108e-07 
9582 2 22.7681 21.0516 1.61192 1 4.85064e-07 
10139 2 23.017 18.8113 0.556003 1 5.24001e-07 
10138 2 24.7593 20.5538 0.204053 1 3.52507e-07 
10192 2 25.0087 20.8031 2.66791 1 1.66259e-07 
10190 2 26.9997 20.3052 1.25999 1 9.93087e-08 
10749 2 29.2399 20.0565 2.31597 1 3.91962e-08 
10751 2 31.231 19.5587 0.908003 1 2.97002e-08 
797 4 -61.3314 23.288 1.95015 5 24.7808 
798 4 -59.5891 21.5457 1.59815 5 6.1952 
799 4 -59.3402 23.7858 0.542151 1 5.00005e-16 
811 4 -57.3489 21.7946 2.65415 1 8e-16 
963 4 -57.5978 22.0435 0.190151 1 4.00006e-16 
1227 4 -55.3577 22.2924 1.24615 1 7.00003e-16 
1229 4 -53.1176 22.5413 2.30215 1 1.59661e-08 
1728 1 -51.1264 23.0391 0.8941 1 1.69303e-08 
1763 1 -48.8863 23.2881 1.95001 1 5.88293e-09 
1766 1 -47.144 21.546 1.59792 1 3.45078e-09 
2324 1 -46.8951 23.7861 0.541918 1 3.32572e-09 
2367 1 -44.9039 21.795 2.6538 1 1.3024e-08 
2572 1 -45.1528 22.0439 0.189825 1 8.58839e-09 
2369 1 -42.9128 22.293 1.24569 1 1.21526e-08 
2930 1 -40.6727 22.5419 2.30156 1 5.41698e-09 
2933 1 -38.6816 23.0399 0.893431 1 8.04516e-09 
3540 1 -36.4415 23.2889 1.94931 1 9.62775e-09 
3541 1 -34.6992 21.5467 1.59722 1 1.43697e-08 
3542 1 -34.4504 23.7868 0.54121 1 2.30312e-08 
3587 1 -32.4591 21.7957 2.65309 1 3.28845e-08 
3795 1 -32.7082 22.0447 0.189118 1 6.06972e-08 
4149 1 -30.4681 22.2937 1.24504 1 6.9079e-08 
4151 1 -28.2278 22.5426 2.30095 1 7.34969e-08 
4717 1 -26.2369 23.0407 0.892955 1 2.30711e-07 
4759 1 -23.9964 23.2894 1.94884 1 3.51046e-07 
4762 1 -22.2541 21.5472 1.59683 1 8.74516e-07 
5324 1 -22.0057 23.7876 0.540881 1 8.56769e-07 
5367 1 -20.013 21.7955 2.65259 1 3.26792e-06 
5369 1 -18.022 22.2939 1.2448 1 1.07503e-05 
5572 1 -20.2635 22.0456 0.188958 1 3.15213e-06 
5880 1 -15.7791 22.5415 2.30026 1 4.97275e-05 
5883 1 -13.7867 23.0405 0.892883 1 0.000205094 
6360 1 -11.5387 23.2866 1.94783 1 0.000854497 
6361 1 -9.79592 21.5462 1.59411 1 0.00129496 
6362 1 -9.54034 23.7867 0.541753 1 0.00353049 
6407 1 -7.53975 21.795 2.64493 1 0.00867077 
6585 1 -7.791 22.0517 0.188057 1 0.0115503 
6757 1 -5.51152 22.3092 1.23751 1 0.0974367 
6759 1 -3.16762 22.53 2.30066 5 0.903456 
7033 1 -0.716334 22.5932 1.05847 5 5.08177 
7774 2 1.69035 22.531 2.31534 5 0.906635 
7776 2 3.7943 22.0459 0.919349 1 0.0581982 
7783 2 5.55529 23.7778 0.557167 1 0.00834962 
8082 2 7.81035 23.5336 1.61341 1 0.00279456 
8085 2 6.0628 21.7964 1.97106 1 0.00870772 
8084 2 9.81234 23.0366 0.206362 1 0.000647965 
8110 2 10.0618 23.2883 2.66833 1 0.000859386 
8503 2 12.0577 22.7902 1.26102 1 0.000205756 
8506 2 14.3022 22.5435 2.31597 1 5.03319e-05 
8978 2 16.2942 22.0457 0.908223 1 1.44155e-05 
9025 2 18.0376 23.7883 0.556166 1 3.89128e-06 
9027 2 18.5361 21.7978 1.96385 1 3.43676e-06 
9028 2 20.2787 23.5403 1.61193 1 1.11965e-06 
9578 2 22.2699 23.0425 0.204081 1 8.80748e-07 
9632 2 22.5195 23.2919 2.66786 1 3.62315e-07 
9630 2 24.5105 22.794 1.26 1 2.55775e-07 
10189 2 26.7509 22.5454 2.31596 1 8.70775e-08 
10191 2 28.742 22.0476 0.908015 1 5.48636e-08 
10239 2 30.4843 23.7899 0.556009 1 3.42332e-08 
10801 2 30.9822 21.7988 1.96399 1 2.18037e-08 
793 4 -61.0825 25.5281 0.894151 5 18.5856 
1204 4 -58.8423 25.777 1.95015 1 1e-15 
1205 4 -57.1 24.0347 1.59815 1 1e-15 
1206 4 -56.8511 26.2748 0.542151 1 6.00005e-16 
1225 4 -54.8599 24.2836 2.65415 1 7.99999e-16 
1399 4 -55.1088 24.5325 0.190151 1 6.00006e-16 
1698 4 -54.611 26.5237 1.59815 1 8e-16 
1727 4 -52.8687 24.7814 1.24615 1 2.07682e-08 
1729 1 -50.6286 25.0303 2.30209 1 1.20396e-08 
2286 1 -48.6374 25.5283 0.894026 1 1.10458e-08 
2322 1 -46.3973 25.7773 1.94988 1 5.07757e-09 
2325 1 -44.655 24.0352 1.59778 1 9.23315e-09 
2893 1 -44.4062 26.2753 0.541755 1 1.15386e-08 
2894 1 -42.1661 26.5243 1.59762 1 8.25144e-09 
2929 1 -42.4149 24.2841 2.65365 1 2.05565e-09 
3132 1 -42.6639 24.5331 0.18967 1 1.54094e-08 
2931 1 -40.4238 24.7821 1.24555 1 9.63496e-09 
3499 1 -38.1837 25.0311 2.30142 1 5.22926e-09 
3502 1 -36.1926 25.529 0.893331 1 1.22893e-08 
4105 1 -33.9525 25.7781 1.9492 1 2.32068e-08 
4106 1 -32.2103 24.0359 1.59709 1 4.11675e-08 
4107 1 -31.9614 26.2761 0.541115 1 5.40441e-08 
4147 1 -29.9701 24.2848 2.65299 1 4.0493e-08 
4355 1 -30.2192 24.5339 0.189034 1 8.87127e-08 
4680 1 -29.7213 26.525 1.59702 1 5.59219e-08 
4716 1 -27.9791 24.7828 1.24497 1 1.15639e-07 
4718 1 -25.7388 25.0316 2.30088 1 1.71242e-07 
5286 1 -23.748 25.5297 0.892891 1 4.04182e-07 
5322 1 -21.5074 25.7783 1.94875 1 8.40638e-07 
5325 1 -19.7648 24.036 1.59675 1 1.69473e-06 
5843 1 -19.5169 26.2766 0.540933 1 2.40669e-06 
6082 1 -17.7745 24.5345 0.189009 1 4.91158e-06 
5844 1 -17.2758 26.5245 1.59679 1 5.83194e-06 
5879 1 -17.5233 24.2837 2.65242 1 6.9207e-06 
5881 1 -15.5329 24.782 1.24487 1 2.1988e-05 
6319 1 -13.2907 25.028 2.30057 1 0.000160932 
6322 1 -11.3036 25.526 0.89448 1 0.00115796 
6713 1 -9.06502 25.769 1.95177 1 0.00690746 
6714 1 -7.28009 24.0319 1.59728 1 0.0111665 
6715 1 -7.0982 26.2642 0.548904 1 0.04742 
6755 1 -5.01251 24.268 2.65568 1 0.0326249 
6913 1 -5.26301 24.5235 0.189937 1 0.0488041 
6996 1 -4.89356 26.5001 1.60782 1 0.231322 
7032 1 -2.99442 24.7557 1.249 5 4.30483 
7034 1 -0.738395 24.6977 2.308 5 4.62734 
7563 2 1.26773 24.4738 0.892706 1 0.185434 
7566 2 3.14123 26.2426 0.543906 1 0.13283 
7782 2 5.35665 26.0113 1.60561 1 0.033446 
7785 2 3.5356 24.2692 1.96028 1 0.0327196 
7784 2 7.33317 25.5187 0.203778 1 0.00414377 
7803 2 7.58821 25.7705 2.66429 1 0.00693458 
8108 2 9.57225 25.2746 1.2599 1 0.000916817 
8111 2 11.8138 25.0298 2.31561 1 0.000161423 
8501 2 13.8046 24.5328 0.908411 1 3.18692e-05 
8541 2 15.5482 26.2762 0.556457 1 1.12426e-05 
8543 2 16.0464 24.2859 1.96391 1 6.82654e-06 
8544 2 17.7895 26.0286 1.61196 1 3.19261e-06 
9024 2 19.7807 25.531 0.204172 1 1.96204e-06 
9078 2 20.0305 25.7806 2.66778 1 8.71459e-07 
9076 2 22.0214 25.2827 1.25998 1 5.50433e-07 
9629 2 24.2619 25.0343 2.31593 1 1.71993e-07 
9631 2 26.2529 24.5364 0.90802 1 1.32543e-07 
9679 2 27.9952 26.2788 0.555985 1 8.4157e-08 
10241 2 28.4932 24.2878 1.96397 1 4.55937e-08 
10238 2 30.2354 26.0301 1.61196 1 2.86259e-08 
1190 4 -60.5847 27.5193 2.30215 5 18.5856 
1193 4 -58.5934 28.0171 0.894151 1 6.00005e-16 
1697 4 -56.3533 28.266 1.95015 1 1e-15 
1699 4 -54.3621 28.7638 0.542151 1 7.00005e-16 
1725 4 -52.3709 26.7726 2.65415 1 3.1598e-08 
1915 4 -52.6198 27.0215 0.190151 1 2.72018e-08 
2256 4 -52.122 29.0127 1.59815 1 4.51523e-08 
2283 1 -49.8819 29.2617 2.65408 1 5.11233e-09 
2285 1 -50.3797 27.2705 1.2461 1 1.17917e-08 
2287 1 -48.1396 27.5195 2.30201 1 1.27189e-08 
2862 1 -46.1484 28.0175 0.893878 1 3.26263e-09 
2891 1 -43.9083 28.2665 1.94972 1 9.89101e-09 
3468 1 -41.9172 28.7645 0.54159 1 9.36559e-09 
3469 1 -39.6771 29.0134 1.59748 1 4.34598e-09 
3498 1 -39.926 26.7733 2.65351 1 2.0148e-09 
3692 1 -40.1749 27.0222 0.189513 1 4.89491e-09 