ITEM: TIMESTEP
0
ITEM: NUMBER OF ATOMS
32400
ITEM: BOX BOUNDS ss pp pp
-68.1098 114.3
0 38.5597
0 50.2757
ITEM: ATOMS id type x y z c_cna c_csd 
3074 4 -67.5697 1.37537 1.35061 5 18.5856 
3864 4 -65.6799 0.0900457 0.364808 1 7.97452e-16 
3872 4 -65.275 2.33936 1.35061 1 9.00022e-16 
3874 4 -63.3852 1.05404 0.364808 1 1.99404e-16 
3876 4 -61.6304 0.0900457 1.8435 1 9.9745e-16 
4732 4 -61.0904 2.01803 0.364808 1 6.00001e-16 
4746 4 -59.3356 1.05404 1.8435 1 1.30636e-08 
4749 1 -57.0408 2.01795 1.84351 1 2.95832e-09 
5637 1 -55.151 0.732565 0.85773 1 2.92256e-09 
5653 1 -52.8562 1.69644 0.85775 1 1.28538e-09 
5656 1 -51.1013 0.732337 2.33644 1 2.21379e-09 
6563 1 -48.8065 1.69621 2.33643 1 2.42955e-09 
6565 1 -46.9166 0.410801 1.35062 1 4.12444e-09 
7447 1 -44.6217 1.37469 1.35058 1 5.63987e-09 
7448 1 -42.7318 0.0892881 0.364757 1 1.12892e-08 
7468 1 -42.3269 2.33857 1.35053 1 9.67683e-09 
8304 1 -40.4369 1.05315 0.364706 1 2.1296e-08 
8305 1 -38.682 0.0890652 1.84336 1 3.30523e-08 
8306 1 -38.142 2.01701 0.364692 1 2.69698e-08 
8330 1 -36.3871 1.05294 1.84337 1 5.17418e-08 
9079 1 -34.0921 2.01683 1.84338 1 7.28655e-08 
9082 1 -32.2021 0.731437 0.857626 1 9.11762e-08 
9763 1 -29.9071 1.69538 0.857655 1 1.5701e-07 
9764 1 -28.1521 0.731349 2.33629 1 2.38514e-07 
9793 1 -25.857 1.6953 2.33628 1 3.92498e-07 
10354 1 -23.9667 0.409956 1.35055 1 6.0769e-07 
10355 1 -21.6714 1.37391 1.35054 1 1.02954e-06 
10844 1 -19.7811 0.088492 0.364858 1 1.46949e-06 
10854 1 -19.376 2.33785 1.35051 1 1.7031e-06 
10856 1 -17.4855 1.05239 0.364844 1 2.44874e-06 
10858 1 -15.7299 0.0884404 1.8432 1 3.62689e-06 
11257 1 -15.1897 2.01623 0.364862 1 4.13135e-06 
11271 1 -13.4338 1.05227 1.8431 1 7.20879e-06 
11274 1 -11.1375 2.01588 1.84236 1 2.86718e-05 
11579 1 -9.24478 0.729205 0.856324 1 0.000164501 
11595 1 -6.94387 1.68907 0.85977 1 0.000906914 
11598 1 -5.17821 0.729695 2.34238 1 0.00609538 
11825 1 -2.85913 1.69436 2.3265 1 0.153209 
11827 1 -0.947298 0.356924 1.435 5 1.64938 
17183 2 1.18323 1.28258 1.28032 5 8.12027 
17184 2 2.9874 2.47106 0.349208 5 5.06881 
17231 2 3.31265 0.131255 1.33091 1 0.22865 
18095 2 5.22103 1.42736 0.369046 1 0.0211264 
18093 2 6.98051 2.39178 1.85072 1 0.00164537 
18096 2 7.52921 0.464901 0.37635 1 0.00111453 
18142 2 9.2791 1.42623 1.8535 1 0.000178509 
19007 2 11.5726 0.459328 1.85255 1 1.47904e-05 
19008 2 13.4648 1.74366 0.866448 1 4.79634e-06 
19917 2 17.5127 1.74328 2.34463 1 1.49715e-06 
19920 2 15.7594 0.779178 0.86619 1 1.40287e-06 
19967 2 19.8079 0.778936 2.34445 1 7.83835e-07 
20830 2 21.6986 2.06385 1.35859 1 3.37867e-07 
3077 4 -67.1648 3.62468 2.3364 5 18.5856 
3870 4 -64.87 4.58867 2.3364 1 6.00001e-16 
3875 4 -62.9802 3.30335 1.35061 1 7e-16 
4742 4 -60.6854 4.26734 1.35061 1 1.21823e-21 
4744 4 -58.7956 2.98202 0.364808 1 1.90238e-08 
5636 1 -56.5009 3.94593 0.364818 1 3.18459e-09 
5649 1 -54.206 4.90981 0.364842 1 1.74789e-09 
5651 1 -54.746 2.98185 1.84353 1 2.55852e-09 
5654 1 -52.4512 3.94572 1.84355 1 3.10491e-09 
6545 1 -50.5613 2.66032 0.857758 1 3.14966e-09 
6559 1 -50.1564 4.9096 1.84354 1 1.74434e-09 
6561 1 -48.2665 3.62419 0.857727 1 1.57619e-09 
6566 1 -46.5117 2.66009 2.33639 1 2.21767e-09 
7446 1 -45.9716 4.58806 0.8577 1 3.03566e-09 
7466 1 -44.2168 3.62397 2.33636 1 3.24781e-09 
7469 1 -41.9219 4.58786 2.33631 1 7.97129e-09 
8303 1 -40.032 3.30244 1.35049 1 1.97184e-08 
8326 1 -37.737 4.26631 1.35048 1 2.78238e-08 
9078 1 -35.8471 2.98089 0.364715 1 3.55627e-08 
9080 1 -33.5521 3.94478 0.364732 1 5.96373e-08 
9106 1 -31.7972 2.98075 1.84339 1 1.14066e-07 
9760 1 -31.2571 4.9087 0.364761 1 1.06393e-07 
9761 1 -29.5021 3.94468 1.84341 1 1.82309e-07 
9765 1 -27.612 2.65932 0.85767 1 2.64769e-07 
9789 1 -27.207 4.90863 1.84342 1 2.91646e-07 
10351 1 -25.3169 3.62327 0.857684 1 4.40995e-07 
10352 1 -23.5618 2.65926 2.33626 1 6.41261e-07 
10353 1 -23.0216 4.58724 0.857701 1 7.34204e-07 
10383 1 -21.2665 3.62322 2.33623 1 1.07895e-06 
10852 1 -18.971 4.58717 2.33616 1 1.84775e-06 
10857 1 -17.0803 3.30178 1.35046 1 2.90834e-06 
11267 1 -14.7844 4.26568 1.35036 1 5.04121e-06 
11269 1 -12.8937 2.97994 0.364704 1 7.20953e-06 
11578 1 -10.5973 3.94342 0.365194 1 1.57516e-05 
11591 1 -8.30136 4.90702 0.364384 1 0.000203019 
11593 1 -8.83995 2.97794 1.84308 1 0.000149451 
11596 1 -6.5469 3.93878 1.83936 1 0.00236131 
11807 1 -4.64273 2.64275 0.853636 1 0.0089528 
11821 1 -4.26185 4.89221 1.86417 1 0.0337468 
11823 1 -2.35693 3.60148 0.897113 1 0.113188 
16321 2 -0.39597 2.70086 2.49973 5 3.07997 
17182 2 0.0406992 4.50807 0.860083 5 5.35676 
17180 2 2.22315 4.30093 1.88027 5 4.44106 
17228 2 4.7006 3.37722 1.85508 1 0.0664729 
18092 2 6.59074 4.64423 0.868292 1 0.00624556 
18094 2 8.87644 3.67376 0.866378 1 0.000282465 
18138 2 10.6251 4.63722 2.34579 1 6.67176e-05 
19003 2 12.9219 3.67254 2.34537 1 1.42821e-05 
19006 2 11.1711 2.70898 0.866887 1 3.73168e-05 
19005 2 14.8138 4.95694 1.35928 1 3.64175e-06 
19053 2 15.2174 2.70775 2.34489 1 3.48217e-06 
19916 2 17.1088 3.99245 1.35892 1 1.24484e-06 
19919 2 19.4037 3.02812 1.35871 1 6.06992e-07 
20783 2 21.2943 4.31304 0.372804 1 3.9814e-07 
3869 4 -66.6248 5.55267 0.857707 5 18.5856 
3871 4 -64.3301 6.51666 0.857707 1 5.00002e-16 
3893 4 -62.5753 5.55267 2.3364 1 6e-16 
4739 4 -62.0353 7.48065 0.857707 1 9.80162e-22 
4740 4 -60.2805 6.51666 2.3364 1 1.79527e-09 
4745 4 -58.3907 5.23133 1.35061 1 3.38236e-08 
4775 1 -57.9857 7.48061 2.3364 1 8.41375e-09 
5647 1 -56.0959 6.19522 1.35061 1 2.32369e-09 
5650 1 -53.8011 7.15911 1.35064 1 2.04932e-09 
6544 1 -51.9112 5.8737 0.364862 1 4.05018e-09 
6557 1 -49.6164 6.83757 0.364846 1 2.28938e-09 
6562 1 -47.8615 5.87346 1.84351 1 2.38426e-09 
7462 1 -45.5667 6.83734 1.84349 1 5.52102e-09 
7464 1 -43.6768 5.55194 0.85767 1 6.63495e-09 
8302 1 -41.3819 6.51582 0.857624 1 1.4308e-08 
8322 1 -39.087 7.47968 0.857591 1 2.4819e-08 
8324 1 -39.627 5.55173 2.33627 1 1.95851e-08 
8327 1 -37.3321 6.5156 2.33627 1 3.30945e-08 
9077 1 -35.4421 5.23019 1.3505 1 4.40083e-08 
9100 1 -35.0372 7.47948 2.33627 1 5.32056e-08 
9102 1 -33.1471 6.19409 1.35051 1 7.3198e-08 
9759 1 -30.8521 7.15801 1.35052 1 1.21434e-07 
9762 1 -28.9621 5.87264 0.364783 1 1.80378e-07 
10348 1 -26.667 6.83659 0.364816 1 3.09573e-07 
10349 1 -24.9119 5.87259 1.84342 1 4.71633e-07 
10379 1 -22.6166 6.83655 1.8434 1 7.69259e-07 
10851 1 -20.7263 5.55118 0.857699 1 1.20492e-06 
10853 1 -18.4307 6.5151 0.857678 1 2.04181e-06 
10886 1 -16.6753 5.55111 2.33605 1 3.19959e-06 
11264 1 -16.135 7.47898 0.857685 1 3.6663e-06 
11265 1 -14.3793 6.51503 2.33598 1 5.59646e-06 
11270 1 -12.4881 5.22947 1.35043 1 8.48812e-06 
11302 1 -12.0831 7.47905 2.33579 1 1.15295e-05 
11589 1 -10.1917 6.19342 1.35016 1 3.31716e-05 
11592 1 -7.8942 7.15747 1.35347 1 0.000426629 
11806 1 -6.00576 5.8726 0.372688 1 0.00294194 
11819 1 -3.70243 6.83431 0.355421 1 0.0318315 
11824 1 -2.03328 5.80937 1.83008 1 0.564569 
16278 2 0.0781802 6.652 1.97648 5 9.8415 
17179 2 2.13232 6.6142 0.899328 5 5.21188 
17176 2 3.74761 7.56583 2.37228 1 0.107264 
17181 2 4.2727 5.57669 0.868387 1 0.126614 
17224 2 6.01818 6.56393 2.34491 1 0.0112154 
18089 2 8.32811 5.60342 2.34803 1 0.000741809 
18091 2 10.2232 6.88643 1.36074 1 8.30879e-05 
19002 2 12.5185 5.92142 1.35972 1 1.15773e-05 
19000 2 14.4102 7.20596 0.373524 1 3.26023e-06 
19871 2 16.7049 6.24161 0.373185 1 1.5693e-06 
19912 2 18.4583 7.20566 1.8517 1 9.50419e-07 
19914 2 18.9996 5.27729 0.37294 1 7.44462e-07 
19915 2 20.7533 6.24135 1.85152 1 4.93305e-07 
20781 2 22.6438 7.5263 0.865658 1 2.54562e-07 
20826 2 23.0483 5.27709 1.85143 1 2.65756e-07 
3866 4 -67.9747 8.76597 0.364808 5 30.976 
3867 4 -66.2199 7.80198 1.8435 5 6.1952 
3868 4 -65.6799 9.72996 0.364808 1 4.00007e-16 
3889 4 -63.9251 8.76597 1.8435 1 5.00003e-16 
4737 4 -61.6304 9.72996 1.8435 1 6.00005e-16 
4741 4 -59.7405 8.44464 0.857707 1 7.03709e-09 
5644 1 -57.4458 9.40858 0.857708 1 3.45317e-09 
5645 1 -55.6909 8.44451 2.33641 1 1.72813e-09 
5683 1 -53.3961 9.40839 2.33643 1 3.25632e-09 
6555 1 -51.5063 8.12298 1.35064 1 2.11526e-09 
6558 1 -49.2114 9.08685 1.35063 1 2.33396e-09 
7445 1 -47.3215 7.80144 0.36483 1 4.27993e-09 
7458 1 -46.9166 10.0507 1.35062 1 4.12444e-09 
7460 1 -45.0267 8.76532 0.364804 1 6.00082e-09 
7465 1 -43.2718 7.80123 1.84346 1 9.63423e-09 
8301 1 -42.7318 9.72921 0.364757 1 1.12892e-08 
8320 1 -40.9769 8.76512 1.8434 1 2.12912e-08 
8323 1 -38.682 9.72898 1.84336 1 3.30523e-08 
9076 1 -36.7921 8.44355 0.857594 1 3.58306e-08 
9098 1 -34.4971 9.40743 0.857613 1 5.96075e-08 
9103 1 -32.7422 8.44338 2.33627 1 9.0777e-08 
9783 1 -30.4472 9.40731 2.33628 1 1.46321e-07 
9785 1 -28.5571 8.12196 1.35054 1 2.05101e-07 
10347 1 -26.262 9.08591 1.35055 1 3.48858e-07 
10350 1 -24.3718 7.80055 0.364833 1 5.25794e-07 
10375 1 -23.9667 10.0499 1.35055 1 6.0769e-07 
10848 1 -22.0765 8.76449 0.364847 1 8.86597e-07 
10849 1 -20.3212 7.8005 1.84336 1 1.29375e-06 
10850 1 -19.7811 9.72841 0.364858 1 1.46949e-06 
10882 1 -18.0257 8.76443 1.8433 1 2.17012e-06 
11262 1 -15.7299 9.72836 1.8432 1 3.62687e-06 
11266 1 -13.8389 8.4428 0.857613 1 7.44341e-06 
11586 1 -11.5422 9.40631 0.857777 1 2.49586e-05 
11587 1 -9.78607 8.44304 2.33667 1 7.91371e-05 
11625 1 -7.48944 9.40852 2.33321 1 0.000962583 
11817 1 -5.59763 8.12288 1.34532 1 0.00510746 
11820 1 -3.27839 9.07694 1.38459 1 0.0354882 
11940 1 -1.38978 7.8291 0.409214 5 0.788543 
11948 1 -0.947298 9.99684 1.435 5 1.64938 
16316 2 1.29978 8.63279 2.29817 5 5.37933 
17175 2 3.31265 9.77117 1.33091 1 0.22865 
17178 2 5.64239 8.82543 1.36586 1 0.0107128 
18048 2 7.52921 10.1048 0.37635 1 0.00111453 
18086 2 9.81973 9.13501 0.374482 1 0.000135548 
18088 2 7.92446 7.8494 1.36018 1 0.0011971 
18087 2 11.5726 10.0992 1.85255 1 1.47907e-05 
18960 2 12.1154 8.1706 0.374115 1 1.22702e-05 
18998 2 13.8679 9.13448 1.85234 1 2.78334e-06 
19001 2 16.1631 8.16999 1.85196 1 1.72483e-06 
19869 2 18.0542 9.45478 0.865928 1 7.75266e-07 
19910 2 20.349 8.49053 0.86576 1 4.47641e-07 
19911 2 22.103 9.45456 2.34435 1 4.33512e-07 
3865 4 -67.5697 11.0153 1.35061 5 18.5856 
3885 4 -65.275 11.9793 1.35061 1 6.00003e-16 
4736 4 -63.3852 10.694 0.364808 1 1.00005e-16 
4738 4 -61.0904 11.6579 0.364808 1 6.00002e-16 
4771 4 -59.3356 10.694 1.8435 1 1.30627e-08 
5641 4 -58.7956 12.6219 0.364808 1 1.90226e-08 
5642 1 -57.0408 11.6579 1.84351 1 2.95838e-09 
5646 1 -55.151 10.3725 0.85773 1 2.92268e-09 
5679 1 -54.746 12.6218 1.84353 1 2.55852e-09 
6552 1 -52.8562 11.3364 0.85775 1 1.2854e-09 
6553 1 -51.1013 10.3723 2.33644 1 2.21376e-09 
6554 1 -50.5613 12.3002 0.857758 1 3.14964e-09 
6593 1 -48.8065 11.3361 2.33643 1 2.42955e-09 
7456 1 -46.5117 12.3 2.33639 1 2.21767e-09 
7461 1 -44.6217 11.0146 1.35058 1 5.63987e-09 
8316 1 -42.3269 11.9785 1.35053 1 9.67681e-09 
8318 1 -40.4369 10.6931 0.364706 1 2.12959e-08 
9075 1 -38.142 11.6569 0.364692 1 2.69697e-08 
9094 1 -35.8471 12.6208 0.364715 1 3.55625e-08 
9096 1 -36.3871 10.6929 1.84337 1 5.17419e-08 
9099 1 -34.0921 11.6567 1.84338 1 7.28654e-08 
9758 1 -32.2021 10.3714 0.857626 1 9.11761e-08 
9779 1 -31.7972 12.6207 1.84339 1 1.14066e-07 
9781 1 -29.9071 11.3353 0.857655 1 1.5701e-07 
9786 1 -28.1521 10.3713 2.33629 1 2.38514e-07 
10346 1 -27.612 12.2992 0.85767 1 2.64768e-07 
10373 1 -25.857 11.3352 2.33628 1 3.92499e-07 
10376 1 -23.5618 12.2992 2.33626 1 6.41262e-07 
10847 1 -21.6714 11.0138 1.35054 1 1.02954e-06 
10878 1 -19.376 11.9778 1.35051 1 1.7031e-06 
11261 1 -17.4855 10.6923 0.364844 1 2.44874e-06 
11263 1 -15.1897 11.6561 0.364862 1 4.13135e-06 
11298 1 -13.4338 10.6922 1.8431 1 7.20883e-06 
11583 1 -12.8937 12.6199 0.364704 1 7.20948e-06 
11584 1 -11.1375 11.6558 1.84236 1 2.86717e-05 
11588 1 -9.24478 10.3691 0.856324 1 0.000164502 
11621 1 -8.83995 12.6179 1.84308 1 0.000149449 
11814 1 -6.94387 11.329 0.85977 1 0.000906934 
11815 1 -5.17821 10.3696 2.34238 1 0.00609548 
11816 1 -4.64273 12.2827 0.853636 1 0.00895276 
11854 1 -2.85913 11.3343 2.3265 1 0.15321 
16274 2 -0.39597 12.3408 2.49973 5 3.07997 
16277 2 1.18323 10.9225 1.28032 5 8.12027 
17138 2 2.9874 12.111 0.349208 5 5.06881 
17173 2 5.22103 11.0673 0.369046 1 0.0211264 
17174 2 6.98051 12.0317 1.85072 1 0.00164537 
18084 2 9.2791 11.0662 1.8535 1 0.00017851 
18082 2 11.1711 12.3489 0.866887 1 3.73159e-05 
18958 2 13.4648 11.3836 0.866448 1 4.79637e-06 
18994 2 15.2174 12.3477 2.34489 1 3.48219e-06 
18996 2 15.7594 10.4191 0.86619 1 1.40286e-06 
18997 2 17.5127 11.3832 2.34463 1 1.49715e-06 
19866 2 19.4037 12.668 1.35871 1 6.06993e-07 
19908 2 19.8079 10.4189 2.34445 1 7.83835e-07 
19906 2 21.6986 11.7038 1.35859 1 3.37867e-07 
3881 4 -66.6248 15.1926 0.857707 5 18.5856 
3883 4 -67.1648 13.2646 2.3364 5 18.5856 
3886 4 -64.87 14.2286 2.3364 1 1.00001e-16 
4735 4 -62.9802 12.9433 1.35061 1 6e-16 
4765 4 -62.5753 15.1926 2.3364 1 4e-16 
4767 4 -60.6854 13.9073 1.35061 1 1.21823e-21 
5640 4 -58.3907 14.8713 1.35061 1 3.38218e-08 
5643 1 -56.5009 13.5858 0.364818 1 3.18483e-09 
6549 1 -54.206 14.5497 0.364842 1 1.74786e-09 
6550 1 -52.4512 13.5856 1.84355 1 3.10493e-09 
6589 1 -50.1564 14.5495 1.84354 1 1.74434e-09 
7455 1 -48.2665 13.2641 0.857727 1 1.57619e-09 
7457 1 -45.9716 14.228 0.8577 1 3.03566e-09 
7497 1 -44.2168 13.2639 2.33636 1 3.2478e-09 
8313 1 -43.6768 15.1919 0.85767 1 6.63493e-09 
8314 1 -41.9219 14.2278 2.33631 1 7.97129e-09 
8319 1 -40.032 12.9424 1.35049 1 1.97183e-08 
8358 1 -39.627 15.1917 2.33627 1 1.95851e-08 
9092 1 -37.737 13.9062 1.35048 1 2.78237e-08 
9095 1 -35.4421 14.8701 1.3505 1 4.40083e-08 
9757 1 -33.5521 13.5847 0.364732 1 5.96372e-08 
9777 1 -31.2571 14.5486 0.364761 1 1.06393e-07 
9782 1 -29.5021 13.5846 1.84341 1 1.82309e-07 
10369 1 -27.207 14.5485 1.84342 1 2.91646e-07 
10371 1 -25.3169 13.2632 0.857684 1 4.40994e-07 
10846 1 -23.0216 14.2272 0.857701 1 7.34204e-07 
10874 1 -20.7263 15.1911 0.857699 1 1.20492e-06 
10876 1 -21.2665 13.2631 2.33623 1 1.07895e-06 
10879 1 -18.971 14.2271 2.33616 1 1.84775e-06 
11260 1 -17.0803 12.9417 1.35046 1 2.90835e-06 
11292 1 -16.6753 15.191 2.33605 1 3.1996e-06 
11294 1 -14.7844 13.9056 1.35036 1 5.04119e-06 
11582 1 -12.4881 14.8694 1.35043 1 8.4882e-06 
11585 1 -10.5973 13.5833 0.365194 1 1.57519e-05 
11811 1 -8.30136 14.5469 0.364384 1 0.00020302 
11812 1 -6.5469 13.5787 1.83936 1 0.00236129 
11850 1 -4.26185 14.5321 1.86417 1 0.033746 
11947 1 -2.35693 13.2414 0.897113 1 0.113188 
16275 2 0.0406994 14.148 0.860083 5 5.35676 
16276 2 2.22315 13.9409 1.88027 5 4.44106 
17136 2 4.2727 15.2166 0.868387 1 0.126615 
17171 2 4.7006 13.0171 1.85508 1 0.0664729 
17169 2 6.59074 14.2841 0.868292 1 0.00624546 
17170 2 8.32811 15.2433 2.34803 1 0.00074182 
18046 2 8.87644 13.3137 0.866378 1 0.000282466 
18080 2 10.6251 14.2771 2.34579 1 6.67176e-05 
18083 2 12.9219 13.3125 2.34537 1 1.42821e-05 
18955 2 14.8138 14.5969 1.35928 1 3.64178e-06 
18992 2 17.1088 13.6324 1.35892 1 1.24483e-06 
19865 2 18.9996 14.9172 0.37294 1 7.44466e-07 
19867 2 21.2943 13.953 0.372804 1 3.98139e-07 
19902 2 23.0483 14.917 1.85143 1 2.65755e-07 
3882 4 -66.2199 17.4419 1.8435 5 6.1952 
4734 4 -64.3301 16.1566 0.857707 1 5.00002e-16 
4763 4 -62.0353 17.1206 0.857707 1 9.80162e-22 
4768 4 -60.2805 16.1566 2.3364 1 1.79518e-09 
5673 1 -57.9857 17.1205 2.3364 1 8.4138e-09 
5675 1 -56.0959 15.8351 1.35061 1 2.3237e-09 
6548 1 -53.8011 16.799 1.35064 1 2.04933e-09 
6551 1 -51.9112 15.5136 0.364862 1 4.05016e-09 
6585 1 -51.5063 17.7629 1.35064 1 2.11525e-09 
7452 1 -49.6164 16.4775 0.364846 1 2.28936e-09 
7453 1 -47.8615 15.5134 1.84351 1 2.38425e-09 
7454 1 -47.3215 17.4414 0.36483 1 4.27992e-09 
7493 1 -45.5667 16.4773 1.84349 1 5.52099e-09 
8311 1 -43.2718 17.4411 1.84346 1 9.63425e-09 
8315 1 -41.3819 16.1557 0.857624 1 1.4308e-08 
9089 1 -39.087 17.1196 0.857591 1 2.4819e-08 
9090 1 -37.3321 16.1555 2.33627 1 3.30946e-08 
9135 1 -35.0372 17.1194 2.33627 1 5.32057e-08 
9775 1 -33.1471 15.834 1.35051 1 7.3198e-08 
9778 1 -30.8521 16.7979 1.35052 1 1.21434e-07 
10345 1 -28.9621 15.5126 0.364783 1 1.80378e-07 
10365 1 -28.5571 17.7619 1.35054 1 2.05102e-07 
10367 1 -26.667 16.4765 0.364816 1 3.09573e-07 
10372 1 -24.9119 15.5125 1.84342 1 4.71633e-07 
10845 1 -24.3718 17.4405 0.364833 1 5.25795e-07 
10872 1 -22.6166 16.4765 1.8434 1 7.69259e-07 
10875 1 -20.3212 17.4404 1.84336 1 1.29376e-06 
11259 1 -18.4307 16.155 0.857678 1 2.04181e-06 
11290 1 -16.135 17.1189 0.857685 1 3.66631e-06 
11295 1 -14.3793 16.155 2.33598 1 5.5964e-06 
11615 1 -12.0831 17.119 2.33579 1 1.15295e-05 
11617 1 -10.1917 15.8333 1.35016 1 3.31726e-05 
11810 1 -7.8942 16.7974 1.35347 1 0.000426647 
11813 1 -6.00576 15.5125 0.372688 1 0.00294192 
11846 1 -5.59763 17.7628 1.34532 1 0.00510764 
11944 1 -3.70243 16.4742 0.35542 1 0.0318323 
11945 1 -2.03328 15.4493 1.83008 1 0.564574 
11946 1 -1.38978 17.469 0.409213 5 0.788541 
16242 2 0.0781849 16.2919 1.97648 5 9.84145 
16271 2 2.13232 16.2541 0.899328 5 5.21186 
16272 2 3.74761 17.2058 2.37228 1 0.107265 
17167 2 6.01818 16.2038 2.34491 1 0.0112155 
17165 2 7.92446 17.4893 1.36018 1 0.0011971 
18043 2 10.2232 16.5264 1.36074 1 8.30874e-05 
18044 2 12.1154 17.8105 0.374115 1 1.22701e-05 
18078 2 12.5185 15.5613 1.35972 1 1.15772e-05 
18954 2 14.4102 16.8459 0.373524 1 3.26026e-06 
18952 2 16.1631 17.8099 1.85196 1 1.72483e-06 
18956 2 16.7049 15.8815 0.373185 1 1.5693e-06 
18988 2 18.4583 16.8456 1.8517 1 9.50418e-07 
19863 2 20.7533 15.8813 1.85152 1 4.93305e-07 
19864 2 22.6438 17.1662 0.865658 1 2.54562e-07 
3878 4 -67.9747 18.4059 0.364808 5 30.976 
4733 4 -65.6799 19.3699 0.364808 1 4.00002e-16 
4759 4 -63.3852 20.3339 0.364808 1 2.00001e-16 
4761 4 -63.9251 18.4059 1.8435 1 5e-16 
4764 4 -61.6304 19.3699 1.8435 1 6e-16 
5639 4 -59.7405 18.0846 0.857707 1 7.03641e-09 
5669 4 -59.3356 20.3339 1.8435 1 1.30618e-08 
5671 1 -57.4458 19.0485 0.857708 1 3.45331e-09 
5676 1 -55.6909 18.0844 2.33641 1 1.72826e-09 
6547 1 -55.151 20.0124 0.85773 1 2.92258e-09 
6583 1 -53.3961 19.0483 2.33643 1 3.25632e-09 
6586 1 -51.1013 20.0122 2.33644 1 2.2138e-09 
7451 1 -49.2114 18.7268 1.35063 1 2.33393e-09 
7489 1 -46.9166 19.6906 1.35062 1 4.12445e-09 
8310 1 -45.0267 18.4052 0.364804 1 6.00079e-09 
8312 1 -42.7318 19.3691 0.364757 1 1.12892e-08 
8354 1 -40.9769 18.405 1.8434 1 2.12912e-08 
9086 1 -40.4369 20.333 0.364706 1 2.12959e-08 
9087 1 -38.682 19.3689 1.84336 1 3.30523e-08 
9091 1 -36.7921 18.0835 0.857594 1 3.58307e-08 
9131 1 -36.3871 20.3328 1.84337 1 5.17418e-08 
9772 1 -34.4971 19.0474 0.857613 1 5.96075e-08 
9773 1 -32.7422 18.0833 2.33627 1 9.07769e-08 
9774 1 -32.2021 20.0113 0.857626 1 9.11761e-08 
9818 1 -30.4472 19.0472 2.33628 1 1.46321e-07 
10363 1 -28.1521 20.0112 2.33629 1 2.38514e-07 
10368 1 -26.262 18.7258 1.35055 1 3.48858e-07 
10868 1 -23.9667 19.6898 1.35055 1 6.0769e-07 
10870 1 -22.0765 18.4044 0.364847 1 8.86596e-07 
11258 1 -19.7811 19.3683 0.364858 1 1.46949e-06 
11286 1 -17.4855 20.3322 0.364844 1 2.44874e-06 
11288 1 -18.0257 18.4044 1.8433 1 2.17012e-06 
11291 1 -15.7299 19.3683 1.8432 1 3.62688e-06 
11581 1 -13.8389 18.0827 0.857613 1 7.44336e-06 
11611 1 -13.4338 20.3321 1.8431 1 7.2088e-06 
11613 1 -11.5422 19.0462 0.857777 1 2.49588e-05 
11618 1 -9.78607 18.083 2.33667 1 7.91337e-05 
11809 1 -9.24478 20.009 0.856324 1 0.000164501 
11844 1 -7.48944 19.0484 2.33321 1 0.000962588 
11847 1 -5.17821 20.0095 2.34238 1 0.00609538 
11943 1 -3.27839 18.7169 1.38459 1 0.0354871 
11966 1 -0.947298 19.6368 1.435 5 1.64938 
16240 2 1.18323 20.5624 1.28032 5 8.12027 
16269 2 1.29978 18.2727 2.29817 5 5.37932 
16267 2 3.31265 19.4111 1.33091 1 0.22865 
17133 2 5.64239 18.4653 1.36586 1 0.0107127 
17134 2 7.52921 19.7447 0.37635 1 0.00111453 
18042 2 9.81973 18.7749 0.374482 1 0.000135547 
18040 2 11.5726 19.7392 1.85255 1 1.47904e-05 
18074 2 13.8679 18.7744 1.85234 1 2.78335e-06 
18951 2 15.7594 20.059 0.86619 1 1.40287e-06 
18953 2 18.0542 19.0947 0.865928 1 7.75263e-07 
18984 2 19.8079 20.0588 2.34445 1 7.83835e-07 
19862 2 20.349 18.1304 0.86576 1 4.47642e-07 
19859 2 22.103 19.0945 2.34435 1 4.33512e-07 
3879 4 -67.5697 20.6552 1.35061 5 18.5856 
3903 4 -67.1648 22.9045 2.3364 5 18.5856 
4757 4 -65.275 21.6192 1.35061 1 6.00002e-16 
4760 4 -62.9802 22.5832 1.35061 1 6e-16 
5638 4 -61.0904 21.2979 0.364808 1 9e-16 
5667 4 -58.7956 22.2619 0.364808 1 1.90203e-08 
5672 1 -57.0408 21.2978 1.84351 1 2.95855e-09 
6579 1 -54.746 22.2617 1.84353 1 2.55856e-09 
6581 1 -52.8562 20.9763 0.85775 1 1.2854e-09 
7450 1 -50.5613 21.9402 0.857758 1 3.14967e-09 
7485 1 -48.2665 22.904 0.857727 1 1.57619e-09 
7487 1 -48.8065 20.976 2.33643 1 2.42956e-09 
7490 1 -46.5117 21.9399 2.33639 1 2.21768e-09 
8309 1 -44.6217 20.6545 1.35058 1 5.63986e-09 
8348 1 -44.2168 22.9038 2.33636 1 3.2478e-09 
8350 1 -42.3269 21.6184 1.35053 1 9.6768e-09 
9085 1 -40.032 22.5823 1.35049 1 1.97183e-08 
9088 1 -38.142 21.2968 0.364692 1 2.69698e-08 
9769 1 -35.8471 22.2607 0.364715 1 3.55627e-08 
9770 1 -34.0921 21.2967 1.84338 1 7.28653e-08 
9814 1 -31.7972 22.2606 1.84339 1 1.14066e-07 
10362 1 -29.9071 20.9752 0.857655 1 1.5701e-07 
10364 1 -27.612 21.9392 0.85767 1 2.64768e-07 
10408 1 -25.857 20.9751 2.33628 1 3.92498e-07 
10865 1 -25.3169 22.9031 0.857684 1 4.40995e-07 
10866 1 -23.5618 21.9391 2.33626 1 6.41261e-07 
10871 1 -21.6714 20.6537 1.35054 1 1.02954e-06 
10912 1 -21.2665 22.9031 2.33623 1 1.07895e-06 
11284 1 -19.376 21.6177 1.35051 1 1.7031e-06 
11287 1 -17.0803 22.5816 1.35046 1 2.90834e-06 
11580 1 -15.1897 21.2961 0.364862 1 4.13135e-06 
11609 1 -12.8937 22.2598 0.364704 1 7.20953e-06 
11614 1 -11.1375 21.2957 1.84236 1 2.86718e-05 
11840 1 -8.83995 22.2578 1.84308 1 0.000149451 
11842 1 -6.94387 20.9689 0.85977 1 0.000906914 
11942 1 -4.64273 21.9226 0.853636 1 0.00895281 
11962 1 -2.35693 22.8813 0.897113 1 0.113188 
11964 1 -2.85913 20.9742 2.3265 1 0.153209 
15419 2 -0.39597 21.9807 2.49973 5 3.07997 
16241 2 2.9874 21.7509 0.349208 5 5.06881 
16263 2 4.7006 22.657 1.85508 1 0.0664728 
17132 2 5.22103 20.7072 0.369046 1 0.0211264 
17130 2 6.98051 21.6716 1.85072 1 0.00164537 
17131 2 8.87644 22.9536 0.866378 1 0.000282465 
17161 2 9.2791 20.7061 1.8535 1 0.000178509 
18036 2 12.9219 22.9524 2.34537 1 1.42821e-05 
18039 2 11.1711 21.9888 0.866887 1 3.73168e-05 
18041 2 13.4648 21.0235 0.866448 1 4.79634e-06 
18070 2 15.2174 21.9876 2.34489 1 3.48217e-06 
18948 2 17.5127 21.0231 2.34463 1 1.49715e-06 
18950 2 19.4037 22.308 1.35871 1 6.06992e-07 
19858 2 21.6986 21.3437 1.35859 1 3.37867e-07 
4754 4 -66.6248 24.8325 0.857707 5 12.3904 
4755 4 -64.87 23.8685 2.3364 1 1.00001e-16 
4801 4 -62.5753 24.8325 2.3364 1 4e-16 
5665 4 -60.6854 23.5472 1.35061 1 2.00001e-16 
5668 4 -58.3907 24.5112 1.35061 1 3.38188e-08 
6546 1 -56.5009 23.2258 0.364818 1 3.18486e-09 
6575 1 -56.0959 25.4751 1.35061 1 2.32359e-09 
6577 1 -54.206 24.1896 0.364842 1 1.74784e-09 
6582 1 -52.4512 23.2256 1.84355 1 3.10493e-09 
7449 1 -51.9112 25.1535 0.364862 1 4.05018e-09 
7483 1 -50.1564 24.1894 1.84354 1 1.74435e-09 
7486 1 -47.8615 25.1533 1.84351 1 2.38424e-09 
8308 1 -45.9716 23.8679 0.8577 1 3.03567e-09 
8346 1 -43.6768 24.8318 0.85767 1 6.63495e-09 
8351 1 -41.9219 23.8677 2.33631 1 7.97126e-09 
9125 1 -39.627 24.8316 2.33627 1 1.95851e-08 
9127 1 -37.737 23.5461 1.35048 1 2.78238e-08 
9768 1 -35.4421 24.51 1.3505 1 4.40084e-08 
9771 1 -33.5521 23.2246 0.364732 1 5.96373e-08 
9810 1 -33.1471 25.4739 1.35051 1 7.3198e-08 
10359 1 -31.2571 24.1885 0.364761 1 1.06393e-07 
10360 1 -29.5021 23.2245 1.84341 1 1.82309e-07 
10361 1 -28.9621 25.1525 0.364783 1 1.80378e-07 
10404 1 -27.207 24.1885 1.84342 1 2.91646e-07 
10863 1 -24.9119 25.1524 1.84342 1 4.71633e-07 
10867 1 -23.0216 23.8671 0.857701 1 7.34204e-07 
11281 1 -20.7263 24.831 0.857699 1 1.20492e-06 
11282 1 -18.971 23.867 2.33616 1 1.84775e-06 
11329 1 -16.6753 24.8309 2.33605 1 3.19959e-06 
11607 1 -14.7844 23.5455 1.35036 1 5.04121e-06 
11610 1 -12.4881 24.5093 1.35043 1 8.48811e-06 
11808 1 -10.5973 23.2233 0.365194 1 1.57516e-05 
11836 1 -10.1917 25.4733 1.35016 1 3.31716e-05 
11838 1 -8.30136 24.1869 0.364384 1 0.000203019 
11843 1 -6.5469 23.2186 1.83936 1 0.00236131 
11941 1 -6.00576 25.1524 0.372688 1 0.00294194 
11960 1 -4.26185 24.172 1.86417 1 0.0337468 
11963 1 -2.03328 25.0892 1.83008 1 0.564568 
16239 2 0.0406991 23.7879 0.860083 5 5.35676 
16237 2 2.22315 23.5808 1.88027 5 4.44106 
16238 2 4.2727 24.8565 0.868387 1 0.126614 
17129 2 6.59074 23.9241 0.868292 1 0.00624556 
17126 2 8.32811 24.8833 2.34803 1 0.000741809 
17157 2 10.6251 23.9171 2.34579 1 6.67176e-05 
18035 2 12.5185 25.2013 1.35972 1 1.15773e-05 
18038 2 14.8138 24.2368 1.35928 1 3.64175e-06 
18926 2 16.7049 25.5214 0.373185 1 1.56931e-06 
18947 2 17.1088 23.2723 1.35892 1 1.24484e-06 
18945 2 18.9996 24.5571 0.37294 1 7.44462e-07 
18946 2 20.7533 25.5212 1.85152 1 4.93305e-07 
19835 2 21.2943 23.5929 0.372804 1 3.98139e-07 
19854 2 23.0483 24.5569 1.85143 1 2.65756e-07 
4751 4 -67.9747 28.0458 0.364808 5 30.976 
4752 4 -66.2199 27.0818 1.8435 5 6.1952 
4756 4 -64.3301 25.7965 0.857707 1 7.00002e-16 
4797 4 -63.9251 28.0458 1.8435 1 6e-16 
5662 4 -62.0353 26.7605 0.857707 1 5.00001e-16 
5663 4 -60.2805 25.7965 2.3364 1 1.79506e-09 
5664 4 -59.7405 27.7245 0.857707 1 7.0402e-09 
5710 1 -57.9857 26.7604 2.3364 1 8.41307e-09 
6573 1 -55.6909 27.7243 2.33641 1 1.72821e-09 
6578 1 -53.8011 26.4389 1.35064 1 2.04931e-09 
7479 1 -51.5063 27.4028 1.35064 1 2.11526e-09 
7481 1 -49.6164 26.1174 0.364846 1 2.28938e-09 
8307 1 -47.3215 27.0813 0.36483 1 4.27994e-09 
8344 1 -45.5667 26.1172 1.84349 1 5.52101e-09 
8342 1 -45.0267 28.0451 0.364804 1 6.00082e-09 
8347 1 -43.2718 27.0811 1.84346 1 9.63423e-09 
9084 1 -41.3819 25.7957 0.857624 1 1.4308e-08 
9121 1 -40.9769 28.045 1.8434 1 2.12911e-08 
9123 1 -39.087 26.7595 0.857591 1 2.4819e-08 
9128 1 -37.3321 25.7954 2.33627 1 3.30945e-08 
9767 1 -36.7921 27.7234 0.857594 1 3.58306e-08 
9808 1 -35.0372 26.7593 2.33627 1 5.32056e-08 
9811 1 -32.7422 27.7232 2.33627 1 9.07769e-08 
10358 1 -30.8521 26.4378 1.35052 1 1.21434e-07 
10400 1 -28.5571 27.4018 1.35054 1 2.05101e-07 
10862 1 -26.667 26.1164 0.364816 1 3.09573e-07 
10864 1 -24.3718 27.0804 0.364833 1 5.25795e-07 
10908 1 -22.6166 26.1164 1.8434 1 7.69259e-07 
11278 1 -22.0765 28.0443 0.364847 1 8.86597e-07 
11279 1 -20.3212 27.0803 1.84336 1 1.29375e-06 
11283 1 -18.4307 25.7949 0.857678 1 2.04181e-06 
11325 1 -18.0257 28.0443 1.8433 1 2.17012e-06 
11604 1 -16.135 26.7588 0.857685 1 3.6663e-06 
11605 1 -14.3793 25.7949 2.33598 1 5.59646e-06 
11606 1 -13.8389 27.7226 0.857613 1 7.44341e-06 
11652 1 -12.0831 26.7589 2.33579 1 1.15295e-05 
11834 1 -9.78607 27.7229 2.33667 1 7.91373e-05 
11839 1 -7.8942 26.4373 1.35347 1 0.000426628 
11956 1 -5.59763 27.4027 1.34532 1 0.00510745 
11958 1 -3.70243 26.1141 0.355421 1 0.0318315 
11992 1 -1.38978 27.1089 0.409214 5 0.788543 
15400 2 0.0781799 25.9318 1.97648 5 9.84151 
15414 2 1.29978 27.9126 2.29817 5 5.37933 
16236 2 2.13232 25.894 0.899328 5 5.21188 
16233 2 3.74761 26.8457 2.37228 1 0.107264 
16235 2 5.64239 28.1053 1.36586 1 0.0107128 
16259 2 6.01818 25.8438 2.34491 1 0.0112153 
17125 2 7.92446 27.1292 1.36018 1 0.0011971 
17128 2 10.2232 26.1663 1.36074 1 8.3088e-05 
18017 2 12.1154 27.4504 0.374115 1 1.22702e-05 
18033 2 14.4102 26.4858 0.373524 1 3.26023e-06 
18034 2 16.1631 27.4498 1.85196 1 1.72483e-06 
18941 2 20.349 27.7704 0.86576 1 4.47641e-07 
18943 2 18.4583 26.4855 1.8517 1 9.50419e-07 
19833 2 22.6438 26.8061 0.865658 1 2.54562e-07 
4750 4 -67.5697 30.2951 1.35061 5 18.5856 
4753 4 -65.6799 29.0098 0.364808 1 7.00002e-16 
5659 4 -63.3852 29.9738 0.364808 1 7.00001e-16 
5660 4 -61.6304 29.0098 1.8435 1 9e-16 
5706 4 -59.3356 29.9738 1.8435 1 1.30601e-08 
6572 1 -57.4458 28.6884 0.857708 1 3.45255e-09 
6574 1 -55.151 29.6523 0.85773 1 2.92252e-09 
6619 1 -53.3961 28.6882 2.33643 1 3.25638e-09 
7476 1 -52.8562 30.6162 0.85775 1 1.28538e-09 
7477 1 -51.1013 29.6521 2.33644 1 2.21377e-09 
7482 1 -49.2114 28.3667 1.35063 1 2.33393e-09 
7523 1 -48.8065 30.616 2.33643 1 2.42955e-09 
8340 1 -46.9166 29.3306 1.35062 1 4.12443e-09 
8343 1 -44.6217 30.2944 1.35058 1 5.63987e-09 
9083 1 -42.7318 29.009 0.364757 1 1.12892e-08 
9119 1 -40.4369 29.9729 0.364706 1 2.12959e-08 
9124 1 -38.682 29.0088 1.84336 1 3.30523e-08 
9804 1 -36.3871 29.9727 1.84337 1 5.17418e-08 
9806 1 -34.4971 28.6873 0.857613 1 5.96074e-08 
10357 1 -32.2021 29.6512 0.857626 1 9.11761e-08 
10398 1 -30.4472 28.6871 2.33628 1 1.46321e-07 
10396 1 -29.9071 30.6151 0.857655 1 1.5701e-07 
10401 1 -28.1521 29.6511 2.33629 1 2.38514e-07 
10861 1 -26.262 28.3657 1.35055 1 3.48858e-07 
10902 1 -25.857 30.615 2.33628 1 3.92499e-07 
10904 1 -23.9667 29.3297 1.35055 1 6.07691e-07 
11277 1 -21.6714 30.2937 1.35054 1 1.02954e-06 
11280 1 -19.7811 29.0082 0.364858 1 1.46949e-06 
11601 1 -17.4855 29.9721 0.364844 1 2.44874e-06 
11602 1 -15.7299 29.0082 1.8432 1 3.62687e-06 
11648 1 -13.4338 29.972 1.8431 1 7.20883e-06 
11833 1 -11.5422 28.6861 0.857777 1 2.49586e-05 
11835 1 -9.24478 29.649 0.856324 1 0.000164503 
11872 1 -7.48944 28.6884 2.33321 1 0.000962583 
11953 1 -6.94387 30.6088 0.85977 1 0.000906935 
11954 1 -5.17821 29.6494 2.34238 1 0.00609548 
11959 1 -3.27839 28.3568 1.38459 1 0.0354883 
11977 1 -2.85913 30.6141 2.3265 1 0.15321 
11998 1 -0.947298 29.2767 1.435 5 1.64938 
15399 2 1.18323 30.2023 1.28032 5 8.12027 
16230 2 5.22103 30.3471 0.369046 1 0.0211265 
16232 2 3.31265 29.051 1.33091 1 0.22865 
17109 2 7.52921 29.3847 0.37635 1 0.00111453 
17121 2 9.2791 30.346 1.8535 1 0.00017851 
17123 2 9.81973 28.4148 0.374482 1 0.000135548 
17124 2 11.5726 29.3791 1.85255 1 1.47908e-05 
18015 2 13.4648 30.6634 0.866448 1 4.79638e-06 
18031 2 13.8679 28.4143 1.85234 1 2.78334e-06 
18029 2 15.7594 29.6989 0.86619 1 1.40286e-06 
18030 2 17.5127 30.663 2.34463 1 1.49715e-06 
18924 2 18.0542 28.7346 0.865928 1 7.75267e-07 
18939 2 19.8079 29.6987 2.34445 1 7.83835e-07 
18942 2 22.103 28.7344 2.34435 1 4.33512e-07 
4791 4 -67.1648 32.5444 2.3364 5 18.5856 
4793 4 -65.275 31.2591 1.35061 1 8.00002e-16 