ITEM: TIMESTEP
0
ITEM: NUMBER OF ATOMS
17790
ITEM: BOX BOUNDS ss pp pp
-66.6335 116.762
0 31.68
0 33.3937
ITEM: ATOMS id type x y z c_cna c_csd 
1 4 -65.8913 1.62008 1.10321 5 18.5856 
15 4 -63.6651 1.62008 2.21634 1 3.99922e-16 
18 4 -61.6244 2.20675 0.917693 1 1.20211e-15 
114 4 -59.3981 2.20675 2.03082 1 8.99881e-16 
193 4 -59.9547 0.44675 0.361133 1 1.00389e-15 
115 4 -57.7284 0.44675 1.47425 1 1.00873e-08 
402 1 -55.6877 1.03336 0.175586 1 2.28094e-09 
323 1 -53.4615 1.03331 1.28866 1 5.51527e-10 
324 1 -51.2352 1.03327 2.40172 1 2.4709e-09 
578 1 -49.1945 1.61988 1.10305 1 1.34024e-09 
620 1 -46.9682 1.61983 2.21614 1 3.59007e-09 
954 1 -44.9275 2.20645 0.917464 1 3.81328e-09 
955 1 -42.7012 2.20639 2.03053 1 3.01311e-09 
1487 1 -43.2578 0.446402 0.360847 1 2.11056e-09 
995 1 -41.0316 0.446348 1.4739 1 2.32547e-09 
1953 1 -38.9908 1.03298 0.175209 1 6.21041e-09 
1406 1 -36.7645 1.03295 1.28828 1 8.43412e-09 
1880 1 -34.5382 1.03293 2.40135 1 1.49214e-08 
1881 1 -32.4975 1.61964 1.10268 1 1.54352e-08 
2309 1 -30.2711 1.61961 2.21574 1 4.62118e-08 
2312 1 -28.2303 2.20626 0.91707 1 7.3036e-08 
2784 1 -26.0039 2.2062 2.03006 1 2.38501e-07 
2880 1 -26.5606 0.446242 0.360485 1 9.88042e-08 
2785 1 -24.3341 0.446152 1.47346 1 3.71915e-07 
3343 1 -22.2931 1.03274 0.174831 1 7.5181e-07 
3264 1 -20.0662 1.03256 1.28765 1 2.71857e-06 
3265 1 -17.8395 1.03257 2.40037 1 7.48221e-06 
3694 1 -15.7968 1.61845 1.10162 1 3.0441e-05 
3736 1 -13.5693 1.61844 2.21441 1 0.000105713 
4168 1 -11.5244 2.20314 0.917263 1 0.000499686 
4169 1 -9.2891 2.20402 2.03217 1 0.00371928 
4727 1 -9.84581 0.44486 0.360392 1 0.00220537 
4209 1 -7.6044 0.450759 1.47697 1 0.0210321 
5186 1 -5.52588 1.04563 0.192501 1 0.273096 
4646 1 -2.98816 0.874008 1.22904 5 4.09799 
5078 1 -0.844935 2.07592 0.490831 5 3.84633 
5119 1 -0.412457 0.372925 2.17837 5 5.20477 
7476 2 1.47141 2.1672 1.5823 1 0.20841 
7474 2 3.58296 1.62025 0.310724 1 0.0246156 
7905 2 5.80749 1.62431 1.43222 1 0.00548896 
7906 2 7.86071 1.03973 0.132993 1 0.000795107 
7913 2 8.0381 1.62225 2.54504 1 0.000699581 
8368 2 10.0852 1.0374 1.24609 1 0.000118181 
8370 2 12.3106 1.03589 2.35885 1 2.01527e-05 
8829 2 14.3528 0.449927 1.05967 1 3.66968e-06 
8832 2 16.0228 2.20995 0.502809 1 1.14767e-06 
8834 2 16.5785 0.44943 2.17266 1 1.92421e-06 
8835 2 18.2486 2.20958 1.61588 1 7.13078e-07 
9293 2 20.2897 1.62318 0.317039 1 2.22583e-07 
9299 2 22.5158 1.62313 1.43009 1 1.57813e-07 
9756 2 24.5567 1.0367 0.131376 1 4.21594e-08 
9757 2 24.7421 1.62325 2.54314 1 8.59518e-08 
168 4 -65.5203 3.96675 0.361133 5 18.5856 
16 4 -63.294 3.96675 1.47425 1 4.00023e-16 
91 4 -59.0271 4.55342 1.28873 1 1.10162e-15 
385 4 -61.2533 4.55342 0.175612 1 1.19537e-15 
116 4 -57.3574 2.79342 0.732173 1 1.40159e-08 
280 4 -56.8008 4.55342 2.40186 1 1.70884e-08 
281 1 -55.1312 2.79337 1.84525 1 2.66257e-09 
282 1 -54.7601 5.14002 1.10318 1 4.74596e-09 
284 1 -53.0904 3.37996 0.546574 1 1.8163e-09 
531 1 -52.5339 5.13997 2.21625 1 1.46681e-09 
577 1 -50.8642 3.37993 1.65964 1 3.27831e-09 
1045 1 -48.8234 3.96653 0.360968 1 2.91309e-09 
908 1 -46.5972 3.96649 1.47406 1 4.28445e-09 
1474 1 -44.5564 4.5531 0.175381 1 6.47554e-09 
1360 1 -42.3302 4.55304 1.28844 1 5.41702e-09 
1361 1 -40.6605 2.793 0.731824 1 4.36903e-09 
1362 1 -40.1039 4.55298 2.40149 1 8.34436e-09 
1404 1 -38.4342 2.79295 1.84489 1 9.6365e-09 
1792 1 -38.0632 5.13962 1.10281 1 7.99881e-09 
1837 1 -36.3935 3.37962 0.546219 1 8.85681e-09 
1835 1 -35.8369 5.1396 2.21588 1 1.20773e-08 
1838 1 -34.1672 3.37961 1.65928 1 1.24411e-08 
2855 1 -32.1264 3.96632 0.360608 1 1.27255e-08 
2310 1 -29.9001 3.96628 1.47366 1 4.49247e-08 
3326 1 -27.8593 4.55295 0.174998 1 6.04234e-08 
2742 1 -25.6328 4.55285 1.28798 1 2.39312e-07 
2786 1 -23.963 2.7928 0.731395 1 4.30099e-07 
3217 1 -23.4064 4.55281 2.40094 1 5.55482e-07 
3218 1 -21.7364 2.7927 1.84431 1 1.11648e-06 
3219 1 -21.3653 5.13927 1.10224 1 1.18367e-06 
3221 1 -19.6951 3.37907 0.545609 1 2.59913e-06 
3647 1 -19.1387 5.13917 2.21507 1 2.78385e-06 
3693 1 -17.4683 3.3788 1.65829 1 6.75526e-06 
4122 1 -13.2004 3.96446 1.47113 1 0.000108987 
4259 1 -15.4269 3.96473 0.359309 1 2.08338e-05 
4714 1 -11.1613 4.55083 0.170174 1 0.000717168 
4600 1 -8.93757 4.55306 1.27385 1 0.00607614 
4601 1 -7.25569 2.78923 0.735459 1 0.00685575 
4602 1 -6.73778 4.5482 2.37804 1 0.0542478 
4644 1 -4.99903 2.77346 1.84111 1 0.139328 
5032 1 -4.70016 5.12836 1.06805 1 0.241475 
5077 1 -2.98809 3.30926 0.54744 5 2.7835 
5075 1 -2.70155 5.04939 2.34858 5 5.70644 
5497 1 -0.825994 4.4265 1.1908 5 5.67804 
7116 2 1.32191 4.51459 2.33168 1 0.424241 
7473 2 3.27342 3.95273 1.04848 1 0.0724439 
7487 2 5.45699 3.96599 2.1797 1 0.00837102 
7910 2 9.16199 5.14444 0.317915 1 4.45525e-05 
7911 2 7.49478 3.38304 0.876135 1 0.000907474 
7914 2 9.71454 3.38247 1.98924 1 0.000106828 
7927 2 11.3846 5.14311 1.43147 1 1.90555e-05 
8366 2 11.7567 2.79705 0.688953 1 1.70027e-05 
8374 2 13.4265 4.5571 0.131963 1 6.78557e-06 
8375 2 13.6097 5.14234 2.54417 1 6.05313e-06 
8376 2 13.9814 2.7961 1.80191 1 3.76319e-06 
8377 2 15.6515 4.55636 1.24507 1 1.88808e-06 
8843 2 19.9185 3.96972 1.05919 1 3.42283e-07 
8845 2 17.8773 4.55606 2.35803 1 1.03108e-06 
9298 2 22.1447 3.96971 2.17219 1 2.15111e-07 
9300 2 24.1856 3.38329 0.873479 1 6.67481e-08 
7 4 -64.9637 5.72675 2.03082 5 12.3904 
72 4 -62.923 6.31342 0.732173 1 9.02826e-16 
89 4 -60.6968 6.31342 1.84529 1 4.99962e-16 
249 4 -58.656 6.90008 0.546653 1 1.89469e-09 
250 1 -56.4298 6.90006 1.65977 1 8.26814e-09 
996 1 -54.3891 7.48666 0.361082 1 7.11681e-10 
532 1 -52.1628 7.48661 1.47416 1 2.68484e-09 
534 1 -50.4931 5.72657 0.917547 1 2.91908e-09 
907 1 -48.2669 5.72654 2.03064 1 2.07344e-09 
909 1 -46.2261 6.31315 0.731969 1 3.35038e-09 
1314 1 -43.9999 6.31309 1.84504 1 3.73956e-09 
1317 1 -41.9592 6.8997 0.546334 1 3.20919e-09 
1791 1 -39.7329 6.89965 1.65939 1 4.90748e-09 
2385 1 -37.6922 7.4863 0.360714 1 1.41296e-09 
2220 1 -35.4659 7.48627 1.47377 1 7.18272e-09 
2266 1 -33.7962 5.72628 0.917199 1 1.26898e-08 
2267 1 -31.5698 5.72628 2.03025 1 2.0213e-08 
2697 1 -29.5291 6.31296 0.731587 1 2.92011e-08 
2740 1 -27.3027 6.31289 1.84461 1 1.22072e-07 
3174 1 -25.2619 6.89953 0.545929 1 1.62034e-07 
3175 1 -23.0354 6.89942 1.65887 1 5.52946e-07 
4210 1 -20.9944 7.48591 0.360192 1 9.79945e-07 
3648 1 -18.7678 7.4857 1.47296 1 2.85358e-06 
3650 1 -17.0973 5.72532 0.916256 1 5.3143e-06 
4121 1 -14.8704 5.72541 2.02854 1 2.12445e-05 
4123 1 -12.8277 6.31147 0.72913 1 0.000137054 
4554 1 -10.5989 6.31258 1.83934 1 0.00131949 
4557 1 -8.53845 6.89859 0.542007 1 0.0116976 
5031 1 -6.29432 6.89714 1.65955 1 0.0748587 
5578 1 -4.12258 7.454 0.392924 5 4.44698 
5453 1 -1.54174 6.96164 1.61795 5 6.33573 
7114 2 0.626997 6.29857 0.687233 5 4.99507 
7119 2 2.85742 6.321 1.80325 1 0.0492911 
7485 2 4.89933 5.73162 0.501464 1 0.00394465 
7488 2 7.11881 5.72968 1.61809 1 0.000366227 
7503 2 8.79122 7.48989 1.05912 1 0.000142923 
7926 2 11.0136 7.48899 2.17356 1 2.55575e-05 
7928 2 13.0548 6.90328 0.874023 1 4.83669e-06 
8393 2 17.3213 6.31649 0.688245 1 6.80714e-07 
8395 2 15.28 6.9027 1.9872 1 2.38714e-06 
8842 2 19.5473 6.31625 1.8013 1 4.57611e-07 
8844 2 21.5883 5.72985 0.502524 1 1.53166e-07 
9314 2 23.8145 5.7299 1.61558 1 9.09973e-08 
60 4 -66.2624 9.83342 1.84529 5 24.7808 
63 4 -64.2217 10.4201 0.546653 1 9.04327e-16 
71 4 -64.5927 8.07342 1.28873 5 6.1952 
73 4 -62.3664 8.07342 2.40186 1 1.09996e-15 
223 4 -61.9954 10.4201 1.65977 1 6.00003e-16 
224 4 -60.3257 8.66008 1.10321 1 3.02406e-16 
247 4 -58.0995 8.66008 2.21634 1 4.5796e-09 
493 1 -56.0588 9.24671 0.917673 1 2.10008e-09 
494 1 -53.8325 9.24666 2.03076 1 1.37894e-09 
820 1 -51.7918 9.83325 0.732061 1 3.72146e-09 
863 1 -49.5655 9.83323 1.84513 1 1.60946e-09 
1444 1 -50.1221 8.07322 0.175458 1 3.10919e-09 
865 1 -47.8959 8.07319 1.28854 1 4.34811e-09 
1270 1 -47.5248 10.4198 0.546445 1 4.54328e-09 
1271 1 -45.2985 10.4198 1.65953 1 3.82448e-09 
1313 1 -45.6696 8.07314 2.40163 1 2.24318e-09 
1315 1 -43.6289 8.65974 1.10294 1 3.50523e-09 
1745 1 -41.4026 8.65968 2.21598 1 4.16292e-09 
1748 1 -39.3619 9.24632 0.917299 1 3.21216e-09 
2219 1 -37.1356 9.24629 2.03036 1 2.59622e-09 
2221 1 -35.0949 9.83295 0.731677 1 1.59824e-08 
2650 1 -32.8685 9.83294 1.84474 1 1.94448e-08 
2696 1 -31.1988 8.07296 1.28816 1 1.72971e-08 
2830 1 -33.4252 8.07297 0.175098 1 1.28504e-08 
2653 1 -30.8278 10.4196 0.546092 1 1.71006e-08 
2698 1 -28.9725 8.07293 2.4012 1 6.56629e-08 
3128 1 -28.6014 10.4196 1.65913 1 6.16527e-08 
3129 1 -26.9317 8.65957 1.10254 1 9.2641e-08 
3172 1 -24.7052 8.65952 2.21552 1 2.76738e-07 
3604 1 -22.6643 9.24607 0.916826 1 5.10085e-07 
3605 1 -20.4377 9.246 2.02965 1 1.52235e-06 
4034 1 -18.3963 9.83235 0.730854 1 3.67717e-06 
4077 1 -16.1696 9.83235 1.84311 1 1.50876e-05 
4684 1 -16.7267 8.07192 0.174134 1 8.32905e-06 
4079 1 -14.5 8.07173 1.28602 1 4.00237e-05 
4510 1 -14.1259 10.4183 0.544112 1 5.9694e-05 
4511 1 -11.8987 10.4183 1.65565 1 0.000180724 
4553 1 -12.2759 8.07181 2.39786 1 0.000250869 
4555 1 -10.2336 8.65614 1.09687 1 0.00220729 
4985 1 -8.02644 8.65208 2.21523 1 0.0200448 
4988 1 -6.01503 9.23059 0.930449 1 0.221792 
5452 1 -3.84665 9.23358 2.05272 5 2.46293 
5454 1 -1.93653 9.16109 0.612474 5 7.18924 
6833 2 0.313507 8.66721 1.43181 5 0.80743 
6834 2 1.93025 10.4282 0.907612 1 0.144632 
7117 2 2.32162 8.07385 0.133156 1 0.0136021 
7118 2 2.52399 8.6554 2.53565 1 0.0895219 
7120 2 4.54302 8.07564 1.24282 1 0.00600271 
7130 2 4.14203 10.4303 2.00515 1 0.0178656 
7128 2 6.19989 9.84155 0.697598 1 0.00275572 
7505 2 6.75622 8.07401 2.35949 1 0.00174229 
7502 2 8.41941 9.83747 1.80542 1 0.000356054 
7504 2 10.46 9.25108 0.50399 1 5.36596e-05 
7952 2 14.7246 8.66349 0.317403 1 2.16415e-06 
7954 2 12.6835 9.24968 1.61682 1 1.06308e-05 
8392 2 16.95 8.66297 1.43049 1 1.05358e-06 
8394 2 18.9911 8.07658 0.13159 1 3.22515e-07 
8422 2 18.6198 10.4231 0.873753 1 4.94528e-07 
8424 2 19.1761 8.6628 2.54345 1 6.2235e-07 
8425 2 20.8459 10.423 1.98678 1 3.33894e-07 
8865 2 21.2172 8.07642 1.24467 1 2.11383e-07 
8863 2 22.887 9.83657 0.688007 1 9.55712e-08 
8868 2 23.4434 8.07649 2.35769 1 1.19773e-07 
61 4 -65.8913 12.1801 1.10321 5 18.5856 
204 4 -63.6651 12.1801 2.21634 1 3.99922e-16 
207 4 -61.6244 12.7668 0.917693 1 1.20211e-15 
458 4 -59.3981 12.7668 2.03082 1 8.99881e-16 
622 4 -59.9547 11.0068 0.361133 1 1.00437e-15 
459 4 -57.7284 11.0068 1.47425 1 1.00873e-08 
959 1 -55.6877 11.5934 0.175586 1 2.28093e-09 
819 1 -53.4615 11.5933 1.28866 1 5.51529e-10 
821 1 -51.2352 11.5933 2.40172 1 2.4709e-09 
1225 1 -49.1945 12.1799 1.10305 1 1.34023e-09 
1268 1 -46.9682 12.1798 2.21614 1 3.59007e-09 
1702 1 -44.9275 12.7664 0.917464 1 3.81328e-09 
1703 1 -42.7012 12.7664 2.03053 1 3.0131e-09 
2313 1 -43.2578 11.0064 0.360847 1 2.11056e-09 
1746 1 -41.0316 11.0063 1.4739 1 2.32547e-09 
2788 1 -38.9908 11.593 0.175209 1 6.21039e-09 
2177 1 -36.7645 11.5929 1.28828 1 8.43412e-09 
2649 1 -34.5382 11.5929 2.40135 1 1.49214e-08 
2651 1 -32.4975 12.1796 1.10268 1 1.54352e-08 
3082 1 -30.2711 12.1796 2.21574 1 4.62118e-08 
3085 1 -28.2303 12.7663 0.91707 1 7.3036e-08 
3557 1 -26.0039 12.7662 2.03006 1 2.38501e-07 
3738 1 -26.5606 11.0062 0.360485 1 9.88042e-08 
3558 1 -24.3341 11.0062 1.47346 1 3.71915e-07 
4173 1 -22.2931 11.5927 0.174831 1 7.5181e-07 
4033 1 -20.0662 11.5926 1.28765 1 2.71857e-06 
4035 1 -17.8395 11.5926 2.40037 1 7.48221e-06 
4465 1 -15.7968 12.1784 1.10162 1 3.0441e-05 
4508 1 -13.5693 12.1784 2.21441 1 0.000105713 
4942 1 -11.5244 12.7631 0.917263 1 0.000499686 
4943 1 -9.2891 12.764 2.03217 1 0.00371928 
5532 1 -9.84581 11.0049 0.360392 1 0.00220537 
4986 1 -7.6044 11.0108 1.47697 1 0.0210321 
5900 1 -5.52588 11.6056 0.192501 1 0.273096 
5410 1 -2.98816 11.434 1.22904 5 4.09799 
5781 1 -0.844935 12.6359 0.490831 5 3.84633 
5822 1 -0.412457 10.9329 2.17837 5 5.20477 
6839 2 1.47141 12.7272 1.5823 1 0.20841 
6837 2 3.58296 12.1802 0.310724 1 0.0246156 
7127 2 5.80749 12.1843 1.43222 1 0.00548896 
7129 2 7.86071 11.5997 0.132993 1 0.000795107 
7148 2 8.0381 12.1823 2.54504 1 0.000699581 
7529 2 10.0852 11.5974 1.24609 1 0.000118181 
7532 2 12.3106 11.5959 2.35885 1 2.01527e-05 
7951 2 14.3528 11.0099 1.05967 1 3.66968e-06 
7989 2 16.0228 12.7699 0.502809 1 1.14767e-06 
7991 2 16.5785 11.0094 2.17266 1 1.92421e-06 
7992 2 18.2486 12.7696 1.61588 1 7.13078e-07 
8421 2 20.2897 12.1832 0.317039 1 2.22583e-07 
8462 2 22.5158 12.1831 1.43009 1 1.57813e-07 
8895 2 24.5567 11.5967 0.131376 1 4.21594e-08 
8896 2 24.7421 12.1832 2.54314 1 8.59518e-08 
535 4 -65.5203 14.5268 0.361133 5 18.5856 
205 4 -63.294 14.5268 1.47425 1 4.00023e-16 
435 4 -59.0271 15.1134 1.28873 1 1.10162e-15 
911 4 -61.2533 15.1134 0.175612 1 1.19537e-15 
460 4 -57.3574 13.3534 0.732173 1 1.40159e-08 
776 4 -56.8008 15.1134 2.40186 1 1.70884e-08 
777 1 -55.1312 13.3534 1.84525 1 2.66256e-09 
778 1 -54.7601 15.7 1.10318 1 4.74594e-09 
780 1 -53.0904 13.94 0.546574 1 1.81629e-09 
1178 1 -52.5339 15.7 2.21625 1 1.4668e-09 
1224 1 -50.8642 13.9399 1.65964 1 3.2783e-09 
1839 1 -48.8234 14.5265 0.360968 1 2.91309e-09 
1656 1 -46.5972 14.5265 1.47406 1 4.28445e-09 
2271 1 -44.5564 15.1131 0.175381 1 6.47553e-09 
2131 1 -42.3302 15.113 1.28844 1 5.41702e-09 
2132 1 -40.6605 13.353 0.731824 1 4.36903e-09 
2133 1 -40.1039 15.113 2.40149 1 8.34437e-09 
2175 1 -38.4342 13.3529 1.84489 1 9.63651e-09 
2561 1 -38.0632 15.6996 1.10281 1 7.9988e-09 
2606 1 -36.3935 13.9396 0.546219 1 8.85681e-09 
2604 1 -35.8369 15.6996 2.21588 1 1.20773e-08 
2607 1 -34.1672 13.9396 1.65928 1 1.24411e-08 
3651 1 -32.1264 14.5263 0.360608 1 1.27255e-08 
3083 1 -29.9001 14.5263 1.47366 1 4.49246e-08 
4125 1 -27.8593 15.113 0.174998 1 6.04234e-08 
3515 1 -25.6328 15.1129 1.28798 1 2.39312e-07 
3559 1 -23.963 13.3528 0.731395 1 4.30099e-07 
3986 1 -23.4064 15.1128 2.40094 1 5.55482e-07 
3987 1 -21.7364 13.3527 1.84431 1 1.11648e-06 
3988 1 -21.3653 15.6993 1.10224 1 1.18367e-06 
3990 1 -19.6951 13.9391 0.545609 1 2.59913e-06 
4418 1 -19.1387 15.6992 2.21507 1 2.78385e-06 
4464 1 -17.4683 13.9388 1.65829 1 6.75526e-06 
4896 1 -13.2004 14.5245 1.47113 1 0.000108987 
5079 1 -15.4269 14.5247 0.359309 1 2.08338e-05 
5501 1 -11.1613 15.1108 0.170174 1 0.000717168 
5364 1 -8.93757 15.1131 1.27385 1 0.00607614 
5365 1 -7.25569 13.3492 0.735459 1 0.00685575 
5366 1 -6.73778 15.1082 2.37804 1 0.0542478 
5408 1 -4.99903 13.3335 1.84111 1 0.139328 
5735 1 -4.70016 15.6884 1.06805 1 0.241475 
5780 1 -2.98809 13.8693 0.54744 5 2.7835 
5778 1 -2.70155 15.6094 2.34858 5 5.70644 
6071 1 -0.825994 14.9865 1.1908 5 5.67804 
6633 2 1.32191 15.0746 2.33168 1 0.424241 
6836 2 3.27342 14.5127 1.04848 1 0.0724439 
6851 2 5.45699 14.526 2.1797 1 0.00837102 
7145 2 9.16199 15.7044 0.317915 1 4.45525e-05 
7146 2 7.49478 13.943 0.876135 1 0.000907474 
7149 2 9.71454 13.9425 1.98924 1 0.000106828 
7173 2 11.3846 15.7031 1.43147 1 1.90555e-05 
7527 2 11.7567 13.357 0.688953 1 1.70027e-05 
7560 2 13.4265 15.1171 0.131963 1 6.78557e-06 
7561 2 13.6097 15.7023 2.54417 1 6.05313e-06 
7562 2 13.9814 13.3561 1.80191 1 3.76319e-06 
7563 2 15.6515 15.1164 1.24507 1 1.88808e-06 
8033 2 19.9185 14.5297 1.05919 1 3.42283e-07 
8035 2 17.8773 15.1161 2.35803 1 1.03108e-06 
8461 2 22.1447 14.5297 2.17219 1 2.15111e-07 
8463 2 24.1856 13.9433 0.873479 1 6.67481e-08 
196 4 -64.9637 16.2868 2.03082 5 12.3904 
416 4 -62.923 16.8734 0.732173 1 9.02827e-16 
433 4 -60.6968 16.8734 1.84529 1 4.99962e-16 
745 4 -58.656 17.4601 0.546653 1 1.89469e-09 
746 1 -56.4298 17.4601 1.65977 1 8.26816e-09 
1749 1 -54.3891 18.0467 0.361082 1 7.11678e-10 
1179 1 -52.1628 18.0466 1.47416 1 2.68484e-09 
1181 1 -50.4931 16.2866 0.917547 1 2.91908e-09 
1655 1 -48.2669 16.2865 2.03064 1 2.07344e-09 
1657 1 -46.2261 16.8731 0.731969 1 3.35037e-09 
2085 1 -43.9999 16.8731 1.84504 1 3.73956e-09 
2088 1 -41.9592 17.4597 0.546334 1 3.20919e-09 
2560 1 -39.7329 17.4596 1.65939 1 4.90747e-09 
3176 1 -37.6922 18.0463 0.360714 1 1.41295e-09 
2993 1 -35.4659 18.0463 1.47377 1 7.18271e-09 
3039 1 -33.7962 16.2863 0.917199 1 1.26898e-08 
3040 1 -31.5698 16.2863 2.03025 1 2.02129e-08 
3470 1 -29.5291 16.873 0.731587 1 2.92011e-08 
3513 1 -27.3027 16.8729 1.84461 1 1.22073e-07 
3943 1 -25.2619 17.4595 0.545929 1 1.62034e-07 
3944 1 -23.0354 17.4594 1.65887 1 5.52946e-07 
4989 1 -20.9944 18.0459 0.360192 1 9.79945e-07 
4419 1 -18.7678 18.0457 1.47296 1 2.85358e-06 
4421 1 -17.0973 16.2853 0.916256 1 5.3143e-06 
4895 1 -14.8704 16.2854 2.02854 1 2.12445e-05 
4897 1 -12.8277 16.8715 0.72913 1 0.000137054 
5318 1 -10.5989 16.8726 1.83934 1 0.00131949 
5321 1 -8.53845 17.4586 0.542007 1 0.0116976 
5734 1 -6.29432 17.4571 1.65955 1 0.0748587 
6152 1 -4.12258 18.014 0.392924 5 4.44698 
6027 1 -1.54174 17.5216 1.61795 5 6.33573 
6631 2 0.626997 16.8586 0.687233 5 4.99507 
6636 2 2.85742 16.881 1.80325 1 0.0492911 
6849 2 4.89933 16.2916 0.501464 1 0.00394465 
6852 2 7.11881 16.2897 1.61809 1 0.000366227 
6867 2 8.79122 18.0499 1.05912 1 0.000142923 
7172 2 11.0136 18.049 2.17356 1 2.55575e-05 
7174 2 13.0548 17.4633 0.874023 1 4.83669e-06 
7602 2 17.3213 16.8765 0.688245 1 6.80714e-07 
7604 2 15.28 17.4627 1.9872 1 2.38714e-06 
8032 2 19.5473 16.8762 1.8013 1 4.57611e-07 
8034 2 21.5883 16.2899 0.502524 1 1.53166e-07 
8508 2 23.8145 16.2899 1.61558 1 9.09973e-08 
404 4 -66.2624 20.3934 1.84529 5 24.7808 
407 4 -64.2217 20.9801 0.546653 1 9.04327e-16 
415 4 -64.5927 18.6334 1.28873 5 6.1952 
417 4 -62.3664 18.6334 2.40186 1 1.09996e-15 
719 4 -61.9954 20.9801 1.65977 1 6.00003e-16 
720 4 -60.3257 19.2201 1.10321 1 3.02406e-16 
743 4 -58.0995 19.2201 2.21634 1 4.57959e-09 
1140 1 -56.0588 19.8067 0.917673 1 2.10008e-09 
1141 1 -53.8325 19.8067 2.03076 1 1.37894e-09 
1569 1 -51.7918 20.3933 0.732061 1 3.72145e-09 
1611 1 -49.5655 20.3932 1.84513 1 1.60946e-09 
2223 1 -50.1221 18.6332 0.175458 1 3.10918e-09 
1613 1 -47.8959 18.6332 1.28854 1 4.34811e-09 
2042 1 -47.5248 20.9798 0.546445 1 4.54329e-09 
2043 1 -45.2985 20.9798 1.65953 1 3.82448e-09 
2084 1 -45.6696 18.6331 2.40163 1 2.24318e-09 
2086 1 -43.6289 19.2197 1.10294 1 3.50523e-09 
2514 1 -41.4026 19.2197 2.21598 1 4.16292e-09 
2517 1 -39.3619 19.8063 0.917299 1 3.21216e-09 
2992 1 -37.1356 19.8063 2.03036 1 2.59622e-09 
2994 1 -35.0949 20.3929 0.731677 1 1.59824e-08 
3424 1 -32.8685 20.3929 1.84474 1 1.94448e-08 
3469 1 -31.1988 18.633 1.28816 1 1.72971e-08 
3609 1 -33.4252 18.633 0.175098 1 1.28504e-08 
3427 1 -30.8278 20.9796 0.546092 1 1.71006e-08 
3471 1 -28.9725 18.6329 2.4012 1 6.56629e-08 
3897 1 -28.6014 20.9796 1.65913 1 6.16527e-08 
3898 1 -26.9317 19.2196 1.10254 1 9.2641e-08 
3941 1 -24.7052 19.2195 2.21552 1 2.76738e-07 
4375 1 -22.6643 19.8061 0.916826 1 5.10085e-07 
4376 1 -20.4377 19.806 2.02965 1 1.52235e-06 
4809 1 -18.3963 20.3924 0.730854 1 3.67717e-06 
4851 1 -16.1696 20.3923 1.84311 1 1.50876e-05 
5456 1 -16.7267 18.6319 0.174134 1 8.32905e-06 
4853 1 -14.5 18.6317 1.28602 1 4.00237e-05 
5275 1 -14.1259 20.9783 0.544112 1 5.9694e-05 
5276 1 -11.8987 20.9783 1.65565 1 0.000180724 
5317 1 -12.2759 18.6318 2.39786 1 0.000250869 
5319 1 -10.2336 19.2161 1.09687 1 0.00220729 
5688 1 -8.02644 19.2121 2.21523 1 0.0200448 
5691 1 -6.01503 19.7906 0.930449 1 0.221792 
6026 1 -3.84665 19.7936 2.05272 5 2.46293 
6028 1 -1.93653 19.7211 0.612474 5 7.18924 
6503 2 0.313507 19.2272 1.43181 5 0.80743 
6504 2 1.93025 20.9882 0.907612 1 0.144632 
6634 2 2.32162 18.6339 0.133156 1 0.0136021 
6635 2 2.52399 19.2154 2.53565 1 0.0895219 
6637 2 4.54302 18.6356 1.24282 1 0.00600271 
6647 2 4.14203 20.9903 2.00515 1 0.0178656 
6645 2 6.19989 20.4016 0.697598 1 0.00275572 
6869 2 6.75622 18.634 2.35949 1 0.00174229 
6866 2 8.41941 20.3975 1.80542 1 0.000356054 
6868 2 10.46 19.8111 0.50399 1 5.36596e-05 
7205 2 14.7246 19.2235 0.317403 1 2.16415e-06 
7207 2 12.6835 19.8097 1.61682 1 1.06308e-05 
7601 2 16.95 19.223 1.43049 1 1.05358e-06 
7603 2 18.9911 18.6366 0.13159 1 3.22515e-07 
7647 2 18.6198 20.9831 0.873753 1 4.94528e-07 
7649 2 19.1761 19.2228 2.54345 1 6.2235e-07 
7650 2 20.8459 20.983 1.98678 1 3.33894e-07 
8078 2 21.2172 18.6364 1.24467 1 2.11383e-07 
8076 2 22.887 20.3966 0.688007 1 9.55712e-08 
8081 2 23.4434 18.6365 2.35769 1 1.19773e-07 
405 4 -65.8913 22.7401 1.10321 5 18.5856 
700 4 -63.6651 22.7401 2.21634 1 3.99922e-16 
703 4 -61.6244 23.3268 0.917693 1 1.20211e-15 
1105 4 -59.3981 23.3268 2.03082 1 8.99881e-16 
1272 4 -59.9547 21.5668 0.361133 1 1.00437e-15 
1106 4 -57.7284 21.5668 1.47425 1 1.00873e-08 
1707 1 -55.6877 22.1534 0.175586 1 2.28093e-09 
1568 1 -53.4615 22.1533 1.28866 1 5.51528e-10 
1570 1 -51.2352 22.1533 2.40172 1 2.4709e-09 
2004 1 -49.1945 22.7399 1.10305 1 1.34023e-09 
2040 1 -46.9682 22.7398 2.21614 1 3.59007e-09 
2475 1 -44.9275 23.3264 0.917464 1 3.81328e-09 
2476 1 -42.7012 23.3264 2.03053 1 3.0131e-09 
3086 1 -43.2578 21.5664 0.360847 1 2.11056e-09 
2515 1 -41.0316 21.5663 1.4739 1 2.32547e-09 
3561 1 -38.9908 22.153 0.175209 1 6.21039e-09 
2952 1 -36.7645 22.1529 1.28828 1 8.43412e-09 
3423 1 -34.5382 22.1529 2.40135 1 1.49214e-08 
3425 1 -32.4975 22.7396 1.10268 1 1.54352e-08 
3857 1 -30.2711 22.7396 2.21574 1 4.62118e-08 
3860 1 -28.2303 23.3263 0.91707 1 7.3036e-08 
4331 1 -26.0039 23.3262 2.03006 1 2.38501e-07 
4512 1 -26.5606 21.5662 0.360485 1 9.88042e-08 
4332 1 -24.3341 21.5662 1.47346 1 3.71915e-07 
4947 1 -22.2931 22.1527 0.174831 1 7.5181e-07 
4808 1 -20.0662 22.1526 1.28765 1 2.71857e-06 
4810 1 -17.8395 22.1526 2.40037 1 7.48221e-06 
5237 1 -15.7968 22.7384 1.10162 1 3.0441e-05 
5273 1 -13.5693 22.7384 2.21441 1 0.000105713 
5649 1 -11.5244 23.3231 0.917263 1 0.000499686 
5650 1 -9.2891 23.324 2.03217 1 0.00371928 
6106 1 -9.84581 21.5649 0.360392 1 0.00220537 
5689 1 -7.6044 21.5708 1.47697 1 0.0210321 
6319 1 -5.52588 22.1656 0.192501 1 0.273096 
5986 1 -2.98816 21.994 1.22904 5 4.09799 
6210 1 -0.844935 23.1959 0.490831 5 3.84633 
6242 1 -0.412457 21.4929 2.17837 5 5.20477 
6509 2 1.47141 23.2872 1.5823 1 0.20841 
6507 2 3.58296 22.7402 0.310724 1 0.0246156 
6644 2 5.80749 22.7443 1.43222 1 0.00548896 
6646 2 7.86071 22.1597 0.132993 1 0.000795107 
6665 2 8.0381 22.7423 2.54504 1 0.000699581 
6893 2 10.0852 22.1574 1.24609 1 0.000118181 
6896 2 12.3106 22.1559 2.35885 1 2.01527e-05 
7204 2 14.3528 21.5699 1.05967 1 3.66968e-06 
7246 2 16.0228 23.3299 0.502809 1 1.14767e-06 
7248 2 16.5785 21.5694 2.17266 1 1.92421e-06 
7249 2 18.2486 23.3296 1.61588 1 7.13078e-07 
7646 2 20.2897 22.7432 0.317039 1 2.22583e-07 
7693 2 22.5158 22.7431 1.43009 1 1.57813e-07 
8121 2 24.5567 22.1567 0.131376 1 4.21594e-08 
8122 2 24.7421 22.7432 2.54314 1 8.59518e-08 
1182 4 -65.5203 25.0868 0.361133 5 18.5856 
701 4 -63.294 25.0868 1.47425 1 4.00023e-16 
1082 4 -59.0271 25.6734 1.28873 1 1.10162e-15 
1659 4 -61.2533 25.6734 0.175612 1 1.19537e-15 
1107 4 -57.3574 23.9134 0.732173 1 1.40159e-08 
1531 4 -56.8008 25.6734 2.40186 1 1.70884e-08 
1532 1 -55.1312 23.9134 1.84525 1 2.66256e-09 
1533 1 -54.7601 26.26 1.10318 1 4.74594e-09 
1535 1 -53.0904 24.5 0.546574 1 1.81629e-09 
1975 1 -52.5339 26.26 2.21625 1 1.4668e-09 
2003 1 -50.8642 24.4999 1.65964 1 3.2783e-09 
2608 1 -48.8234 25.0865 0.360968 1 2.91309e-09 
2444 1 -46.5972 25.0865 1.47406 1 4.28445e-09 
3044 1 -44.5564 25.6731 0.175381 1 6.47553e-09 
2917 1 -42.3302 25.673 1.28844 1 5.41702e-09 
2918 1 -40.6605 23.913 0.731824 1 4.36903e-09 
2919 1 -40.1039 25.673 2.40149 1 8.34437e-09 
2950 1 -38.4342 23.9129 1.84489 1 9.63651e-09 
3363 1 -38.0632 26.2596 1.10281 1 7.9988e-09 
3389 1 -36.3935 24.4996 0.546219 1 8.85681e-09 
3387 1 -35.8369 26.2596 2.21588 1 1.20773e-08 
3390 1 -34.1672 24.4996 1.65928 1 1.24411e-08 
4422 1 -32.1264 25.0863 0.360608 1 1.27255e-08 
3858 1 -29.9001 25.0863 1.47366 1 4.49246e-08 
4899 1 -27.8593 25.673 0.174998 1 6.04234e-08 
4302 1 -25.6328 25.6729 1.28798 1 2.39312e-07 
4333 1 -23.963 23.9128 0.731395 1 4.30099e-07 
4771 1 -23.4064 25.6728 2.40094 1 5.55482e-07 
4772 1 -21.7364 23.9127 1.84431 1 1.11648e-06 
4773 1 -21.3653 26.2593 1.10224 1 1.18367e-06 
4775 1 -19.6951 24.4991 0.545609 1 2.59913e-06 
5208 1 -19.1387 26.2592 2.21507 1 2.78385e-06 
5236 1 -17.4683 24.4988 1.65829 1 6.75526e-06 
5618 1 -13.2004 25.0845 1.47113 1 0.000108987 
5782 1 -15.4269 25.0847 0.359309 1 2.08338e-05 
6075 1 -11.1613 25.6708 0.170174 1 0.000717168 
5951 1 -8.93757 25.6731 1.27385 1 0.00607614 
5952 1 -7.25569 23.9092 0.735459 1 0.00685575 
5953 1 -6.73778 25.6682 2.37804 1 0.0542478 
5984 1 -4.99903 23.8935 1.84111 1 0.139328 
6183 1 -4.70016 26.2484 1.06805 1 0.241475 
6209 1 -2.98809 24.4293 0.54744 5 2.7835 
6207 1 -2.70155 26.1694 2.34858 5 5.70644 
6356 1 -0.825994 25.5465 1.1908 5 5.67804 
6456 2 1.32191 25.6346 2.33168 1 0.424241 
6506 2 3.27342 25.0727 1.04848 1 0.0724439 
6521 2 5.45699 25.086 2.1797 1 0.00837102 
6662 2 9.16199 26.2644 0.317915 1 4.45525e-05 
6663 2 7.49478 24.503 0.876135 1 0.000907474 
6666 2 9.71454 24.5025 1.98924 1 0.000106828 
6690 2 11.3846 26.2631 1.43147 1 1.90555e-05 
6891 2 11.7567 23.917 0.688953 1 1.70027e-05 
6924 2 13.4265 25.6771 0.131963 1 6.78557e-06 
6925 2 13.6097 26.2623 2.54417 1 6.05313e-06 
6926 2 13.9814 23.9161 1.80191 1 3.76319e-06 
6927 2 15.6515 25.6764 1.24507 1 1.88808e-06 
7291 2 19.9185 25.0897 1.05919 1 3.42283e-07 
7293 2 17.8773 25.6761 2.35803 1 1.03108e-06 
7692 2 22.1447 25.0897 2.17219 1 2.15111e-07 
7694 2 24.1856 24.5033 0.873479 1 6.67481e-08 
692 4 -64.9637 26.8468 2.03082 5 12.3904 
1064 4 -62.923 27.4334 0.732173 1 9.02826e-16 
1080 4 -60.6968 27.4334 1.84529 1 4.99961e-16 
1509 4 -58.656 28.0201 0.546653 1 1.89469e-09 
1510 1 -56.4298 28.0201 1.65977 1 8.26816e-09 
2518 1 -54.3891 28.6067 0.361082 1 7.11678e-10 
1976 1 -52.1628 28.6066 1.47416 1 2.68484e-09 
1978 1 -50.4931 26.8466 0.917547 1 2.91908e-09 
2443 1 -48.2669 26.8465 2.03064 1 2.07344e-09 
2445 1 -46.2261 27.4331 0.731969 1 3.35037e-09 
2893 1 -43.9999 27.4331 1.84504 1 3.73956e-09 
2896 1 -41.9592 28.0197 0.546334 1 3.20919e-09 
3362 1 -39.7329 28.0196 1.65939 1 4.90747e-09 
3945 1 -37.6922 28.6063 0.360714 1 1.41295e-09 
3811 1 -35.4659 28.6063 1.47377 1 7.18271e-09 
3830 1 -33.7962 26.8463 0.917199 1 1.26898e-08 
3831 1 -31.5698 26.8463 2.03025 1 2.02129e-08 
4280 1 -29.5291 27.433 0.731587 1 2.92011e-08 
4300 1 -27.3027 27.4329 1.84461 1 1.22073e-07 
4749 1 -25.2619 28.0195 0.545929 1 1.62034e-07 
4750 1 -23.0354 28.0194 1.65887 1 5.52946e-07 
5692 1 -20.9944 28.6059 0.360192 1 9.79945e-07 
5209 1 -18.7678 28.6057 1.47296 1 2.85358e-06 
5211 1 -17.0973 26.8453 0.916256 1 5.3143e-06 
5617 1 -14.8704 26.8454 2.02854 1 2.12445e-05 
5619 1 -12.8277 27.4315 0.72913 1 0.000137054 
5927 1 -10.5989 27.4326 1.83934 1 0.00131949 
5930 1 -8.53845 28.0186 0.542007 1 0.0116976 
6182 1 -6.29432 28.0171 1.65955 1 0.0748587 
6415 1 -4.12258 28.574 0.392924 5 4.44698 
6339 1 -1.54174 28.0816 1.61795 5 6.33573 
6454 2 0.626997 27.4186 0.687233 5 4.99507 
6459 2 2.85742 27.441 1.80325 1 0.0492911 
6519 2 4.89933 26.8516 0.501464 1 0.00394465 
6522 2 7.11881 26.8497 1.61809 1 0.000366227 
6537 2 8.79122 28.6099 1.05912 1 0.000142923 
6689 2 11.0136 28.609 2.17356 1 2.55575e-05 
6691 2 13.0548 28.0233 0.874023 1 4.83669e-06 
6966 2 17.3213 27.4365 0.688245 1 6.80714e-07 
6968 2 15.28 28.0227 1.9872 1 2.38714e-06 
7290 2 19.5473 27.4362 1.8013 1 4.57611e-07 
7292 2 21.5883 26.8499 0.502524 1 1.53166e-07 
7739 2 23.8145 26.8499 1.61558 1 9.09973e-08 
1055 4 -66.2624 30.9534 1.84529 5 24.7808 
1056 4 -64.2217 31.5401 0.546653 1 9.04327e-16 
1063 4 -64.5927 29.1934 1.28873 5 6.1952 
1065 4 -62.3664 29.1934 2.40186 1 1.09996e-15 
1494 4 -61.9954 31.5401 1.65977 1 6.00003e-16 
1495 4 -60.3257 29.7801 1.10321 1 3.02406e-16 
1507 4 -58.0995 29.7801 2.21634 1 4.57959e-09 
1960 1 -56.0588 30.3667 0.917673 1 2.10008e-09 
1961 1 -53.8325 30.3667 2.03076 1 1.37894e-09 
2417 1 -51.7918 30.9533 0.732061 1 3.72145e-09 
2424 1 -49.5655 30.9532 1.84513 1 1.60946e-09 
2996 1 -50.1221 29.1932 0.175458 1 3.10918e-09 
2426 1 -47.8959 29.1932 1.28854 1 4.34811e-09 
2882 1 -47.5248 31.5398 0.546445 1 4.54329e-09 
2883 1 -45.2985 31.5398 1.65953 1 3.82448e-09 
2892 1 -45.6696 29.1931 2.40163 1 2.24318e-09 
2894 1 -43.6289 29.7797 1.10294 1 3.50523e-09 
3347 1 -41.4026 29.7797 2.21598 1 4.16292e-09 
3349 1 -39.3619 30.3663 0.917299 1 3.21216e-09 
3810 1 -37.1356 30.3663 2.03036 1 2.59622e-09 
3812 1 -35.0949 30.9529 0.731677 1 1.59824e-08 
4269 1 -32.8685 30.9529 1.84474 1 1.94448e-08 
4279 1 -31.1988 29.193 1.28816 1 1.72971e-08 
4380 1 -33.4252 29.193 0.175098 1 1.28504e-08 
4270 1 -30.8278 31.5396 0.546092 1 1.71006e-08 
4281 1 -28.9725 29.1929 2.4012 1 6.56629e-08 
4734 1 -28.6014 31.5396 1.65913 1 6.16527e-08 
4735 1 -26.9317 29.7796 1.10254 1 9.2641e-08 
4747 1 -24.7052 29.7795 2.21552 1 2.76738e-07 
5193 1 -22.6643 30.3661 0.916826 1 5.10085e-07 
5194 1 -20.4377 30.366 2.02965 1 1.52235e-06 
5591 1 -18.3963 30.9524 0.730854 1 3.67717e-06 
5598 1 -16.1696 30.9523 1.84311 1 1.50876e-05 
6030 1 -16.7267 29.1919 0.174134 1 8.32905e-06 
5600 1 -14.5 29.1917 1.28602 1 4.00237e-05 
5916 1 -14.1259 31.5383 0.544112 1 5.9694e-05 
5917 1 -11.8987 31.5383 1.65565 1 0.000180724 
5926 1 -12.2759 29.1918 2.39786 1 0.000250869 
5928 1 -10.2336 29.7761 1.09687 1 0.00220729 
6167 1 -8.02644 29.7721 2.21523 1 0.0200448 
6169 1 -6.01503 30.3506 0.930449 1 0.221792 
6338 1 -3.84665 30.3536 2.05272 5 2.46293 
6340 1 -1.93653 30.2811 0.612474 5 7.18924 
6451 2 0.313507 29.7872 1.43181 5 0.80743 
7472 2 1.93025 31.5482 0.907612 1 0.144632 
6457 2 2.32162 29.1939 0.133156 1 0.0136021 
6458 2 2.52399 29.7754 2.53565 1 0.0895219 
6460 2 4.54302 29.1956 1.24282 1 0.00600271 
7907 2 4.14203 31.5503 2.00515 1 0.0178656 
6467 2 6.19989 30.9616 0.697598 1 0.00275572 
6539 2 6.75622 29.194 2.35949 1 0.00174229 
6536 2 8.41941 30.9575 1.80542 1 0.000356054 
6538 2 10.46 30.3711 0.50399 1 5.36596e-05 
6721 2 14.7246 29.7835 0.317403 1 2.16415e-06 
6722 2 12.6835 30.3697 1.61682 1 1.06308e-05 
6965 2 16.95 29.783 1.43049 1 1.05358e-06 