ITEM: TIMESTEP
0
ITEM: NUMBER OF ATOMS
22416
ITEM: BOX BOUNDS ss pp pp
-61.8269 124.194
0 37.3352
0 35.2
ITEM: ATOMS id type x y z c_cna c_csd 
166 4 -60.8311 0.348723 2.54837 5 18.5856 
167 4 -59.3377 2.33994 2.54837 1 4.9992e-16 
169 4 -61.08 2.09103 0.788374 5 18.5856 
170 4 -59.0888 0.597624 0.788374 1 1.00566e-16 
566 4 -57.3465 0.846526 2.54837 1 7.02404e-16 
569 4 -57.5954 2.58884 0.788374 1 8.99762e-16 
570 4 -55.6042 1.09543 0.788374 1 5.99765e-16 
986 4 -53.8619 1.34433 2.54837 1 4.82496e-10 
990 4 -52.1196 1.59323 0.788374 1 1.3995e-08 
1406 1 -50.3773 1.84208 2.54838 1 2.87671e-09 
1430 1 -50.1284 0.099758 0.788387 1 4.06559e-09 
1410 1 -48.635 2.09093 0.788377 1 8.88354e-09 
1429 1 -48.3861 0.348642 2.5484 1 7.82613e-09 
1836 1 -46.8927 2.33983 2.54837 1 3.68497e-09 
1860 1 -46.6437 0.597512 0.788383 1 2.10901e-09 
1840 1 -45.1503 2.58871 0.788372 1 1.8894e-09 
1859 1 -44.9014 0.846401 2.54836 1 1.94541e-09 
2279 1 -41.4168 1.34419 2.54834 1 6.91476e-09 
2280 1 -43.1591 1.09528 0.788371 1 9.31625e-09 
2709 1 -39.6745 1.59308 0.788348 1 3.13942e-09 
2707 1 -37.9322 1.84199 2.54834 1 5.48917e-09 
2710 1 -37.6833 0.0996746 0.788331 1 4.50221e-09 
3149 1 -36.1899 2.09093 0.788338 1 4.9172e-09 
3146 1 -35.941 0.348605 2.54833 1 5.00318e-09 
3147 1 -34.4476 2.33983 2.54834 1 3.1806e-09 
3150 1 -34.1987 0.597525 0.788311 1 3.05698e-09 
3566 1 -32.4564 0.846421 2.5483 1 4.862e-09 
3569 1 -32.7053 2.58873 0.788301 1 2.56922e-09 
3570 1 -30.7141 1.09532 0.788282 1 5.05081e-09 
3986 1 -28.9718 1.34422 2.54829 1 4.42932e-09 
3990 1 -27.2295 1.59313 0.7883 1 6.45961e-09 
4406 1 -25.4872 1.84203 2.5483 1 1.46658e-08 
4410 1 -23.7448 2.09095 0.78838 1 6.76671e-08 
4429 1 -23.4959 0.348629 2.54836 1 4.70727e-08 
4430 1 -25.2382 0.0997274 0.788341 1 1.71439e-08 
4836 1 -22.0024 2.33984 2.54839 1 1.07897e-07 
4860 1 -21.7536 0.597541 0.788399 1 1.58954e-07 
4840 1 -20.2602 2.5887 0.788361 1 2.44502e-07 
4859 1 -20.0111 0.846435 2.54837 1 2.20994e-07 
5280 1 -18.269 1.09522 0.788192 1 4.08354e-07 
5279 1 -16.5264 1.34418 2.54802 1 1.24449e-06 
5707 1 -13.0429 1.84211 2.54674 1 6.63405e-06 
5709 1 -14.7849 1.59298 0.787223 1 1.27707e-06 
5710 1 -12.7943 0.0992996 0.786031 1 6.11353e-06 
6146 1 -11.0534 0.348641 2.54546 1 3.04697e-05 
6149 1 -11.3025 2.09111 0.784606 1 7.94122e-05 
6147 1 -9.56094 2.33894 2.54139 1 0.00017824 
6150 1 -9.31337 0.597415 0.78262 1 0.000599753 
6566 1 -7.5711 0.844258 2.5357 1 0.00170324 
6569 1 -7.81333 2.58549 0.781582 1 0.000839939 
6570 1 -5.80232 1.0909 0.785621 1 0.00720295 
6986 1 -4.05151 1.33383 2.52965 1 0.0194366 
6990 1 -2.28201 1.62686 0.794551 1 0.320548 
7333 1 -0.519927 1.66761 2.5825 5 6.2265 
7340 1 -0.473552 0.0104422 0.662304 5 5.86488 
7434 2 1.61703 0.566174 1.35751 5 6.22359 
7526 2 3.58266 1.0065 2.69693 1 0.403269 
7527 2 3.74438 0.702175 0.214455 1 0.143739 
7529 2 5.74749 1.22116 1.63234 1 0.0360876 
7703 2 9.95393 1.97719 2.00026 1 0.00155647 
7705 2 7.96217 1.47429 0.586732 1 0.00559467 
7704 2 11.6908 0.23328 2.3581 1 0.000228496 
7955 2 12.1936 2.22463 0.950765 1 0.000299521 
7960 2 13.9316 0.481298 1.30431 1 5.65996e-05 
7962 2 16.1726 0.729792 0.249635 1 2.05786e-05 
8291 2 18.1634 1.22841 1.65734 1 1.34535e-05 
8298 2 20.4034 1.47707 0.601894 1 4.74022e-06 
8710 2 22.3939 1.97529 2.01002 1 1.35576e-06 
8707 2 24.136 0.233043 2.36207 1 4.86103e-07 
8712 2 24.634 2.22422 0.954247 1 5.1457e-07 
8713 2 26.3762 0.482086 1.30631 1 2.06822e-07 
9207 2 28.6163 0.731192 0.250473 1 1.06853e-07 
9209 2 30.6073 1.22931 1.65858 1 3.15635e-08 
126 4 -61.329 3.83334 2.54837 5 18.5856 
130 4 -59.5866 4.08225 0.788374 1 7.00003e-16 
526 4 -57.8443 4.33115 2.54837 1 1.2e-15 
530 4 -56.102 4.58005 0.788374 1 7.00004e-16 
567 4 -55.8531 2.83774 2.54837 1 4.0008e-16 
946 4 -54.3597 4.82895 2.54837 1 4e-16 
989 4 -54.1108 3.08664 0.788374 1 2.70333e-21 
950 4 -52.6174 5.07785 0.788374 1 6.4244e-09 
987 4 -52.3685 3.33554 2.54837 1 7.23445e-09 
1366 1 -50.8751 5.32671 2.54836 1 4.85532e-09 
1409 1 -50.6262 3.5844 0.788372 1 1.72035e-09 
1407 1 -48.8839 3.83326 2.54836 1 3.71873e-09 
1839 1 -47.1416 4.08212 0.788361 1 9.31122e-09 
1837 1 -45.3993 4.33102 2.54835 1 5.24196e-09 
2256 1 -43.408 2.83761 2.54834 1 5.01108e-09 
2257 1 -41.9146 4.82883 2.54834 1 4.23644e-09 
2259 1 -43.6569 4.57992 0.788358 1 3.24204e-09 
2260 1 -41.6657 3.08651 0.788351 1 7.86732e-09 
2676 1 -39.9234 3.33542 2.54834 1 9.10903e-09 
2679 1 -40.1723 5.07774 0.788346 1 1.17043e-08 
2677 1 -38.43 5.32665 2.54835 1 1.0697e-08 
2680 1 -38.1811 3.58433 0.788349 1 5.92646e-09 
3106 1 -36.4388 3.83323 2.54836 1 7.66326e-09 
3110 1 -34.6965 4.08214 0.788332 1 4.95301e-09 
3526 1 -32.9542 4.33103 2.54833 1 2.22454e-09 
3530 1 -31.2119 4.57994 0.788286 1 4.12485e-09 
3567 1 -30.963 2.83762 2.5483 1 3.80936e-09 
3946 1 -29.4696 4.82883 2.54828 1 9.43687e-09 
3989 1 -29.2207 3.08653 0.788283 1 6.01769e-09 
3950 1 -27.7273 5.07775 0.788289 1 6.36909e-09 
3987 1 -27.4784 3.33543 2.54828 1 7.81981e-09 
4366 1 -25.9849 5.32664 2.54829 1 5.74855e-09 
4409 1 -25.736 3.58434 0.788324 1 7.59966e-09 
4407 1 -23.9937 3.83325 2.54834 1 2.09874e-08 
4837 1 -20.5089 4.33103 2.54842 1 3.40526e-07 
4839 1 -22.2514 4.08213 0.788399 1 1.56235e-07 
5256 1 -18.5176 2.83761 2.54832 1 6.11337e-07 
5259 1 -18.7669 4.5799 0.788278 1 4.09798e-07 
5257 1 -17.0243 4.82888 2.54819 1 1.15644e-06 
5260 1 -16.7759 3.08645 0.787938 1 5.86459e-07 
5676 1 -15.0334 3.33553 2.54765 1 2.2793e-06 
5677 1 -13.5403 5.32685 2.54657 1 5.15928e-06 
5679 1 -15.283 5.07785 0.787446 1 2.5036e-06 
5680 1 -13.2924 3.58461 0.78631 1 1.34464e-05 
6106 1 -11.5502 3.8333 2.54462 1 3.02979e-05 
6110 1 -9.80671 4.08191 0.783128 1 6.16027e-05 
6526 1 -8.06587 4.32861 2.53846 1 0.000621502 
6530 1 -6.31439 4.57644 0.781053 1 0.00344619 
6567 1 -6.07133 2.83026 2.52936 1 0.00462332 
6946 1 -4.58322 4.81959 2.54569 1 0.0106252 
6950 1 -2.81382 5.07941 0.828522 1 0.225252 
6987 1 -2.55167 3.32799 2.53831 1 0.181572 
6989 1 -4.30045 3.09384 0.784514 1 0.0199918 
7334 1 -0.583134 3.5374 1.03437 5 6.27511 
7518 2 1.59775 2.81862 2.30957 5 5.117 
7523 2 2.27586 4.65108 0.916074 5 2.17388 
7528 2 3.97582 2.95134 1.28177 1 0.0878422 
7681 2 4.17167 5.21788 2.37225 1 0.123779 
7696 2 5.94376 3.47502 2.69612 1 0.0174683 
7697 2 6.22163 3.21652 0.237754 1 0.00903967 
7699 2 8.20417 3.71987 1.65196 1 0.00177832 
7958 2 10.4534 3.96908 0.602804 1 0.000524683 
7956 2 12.4375 4.46657 2.01045 1 0.000103598 
7957 2 14.182 2.72319 2.35984 1 0.000103251 
8282 2 14.6786 4.71415 0.954569 1 3.92037e-05 
8284 2 16.667 5.21165 2.3626 1 1.91206e-05 
8294 2 16.4219 2.97121 1.3054 1 3.30695e-05 
8296 2 18.6616 3.2195 0.249879 1 1.08194e-05 
8699 2 20.6514 3.71761 1.65808 1 2.35851e-06 
8711 2 22.8916 3.96638 0.602237 1 7.9818e-07 
9201 2 24.8824 4.46449 2.01033 1 4.02619e-07 
9198 2 26.6249 2.72236 2.36235 1 1.56987e-07 
9203 2 27.1226 4.71351 0.954449 1 1.22127e-07 
9208 2 28.865 2.97143 1.30651 1 6.14492e-08 
9761 2 29.1137 5.21161 2.36252 1 6.05587e-08 
9777 2 31.1051 3.22053 0.250619 1 3.85841e-08 
87 4 -61.8268 7.31797 2.54837 5 30.976 
90 4 -60.0844 7.56687 0.788374 5 6.1952 
127 4 -59.8355 5.82456 2.54837 1 6e-16 
129 4 -61.5779 5.57566 0.788374 5 18.5856 
486 4 -58.3421 7.81577 2.54837 1 2e-16 
529 4 -58.0932 6.07346 0.788374 1 4.00003e-16 
527 4 -56.3509 6.32236 2.54837 1 3.00001e-16 
949 4 -54.6086 6.57126 0.788374 1 9.00002e-16 
947 4 -52.8663 6.82016 2.54837 1 6.95571e-09 
1367 1 -49.3817 7.3179 2.54836 1 5.3825e-09 
1369 1 -51.124 7.06903 0.788375 1 1.56896e-09 
1370 1 -49.1328 5.57558 0.788364 1 4.17427e-09 
1796 1 -47.3905 5.82444 2.54835 1 6.70523e-09 
1799 1 -47.6393 7.56677 0.788375 1 4.97121e-09 
1797 1 -45.897 7.81564 2.54837 1 4.71012e-09 
1800 1 -45.6481 6.07333 0.788361 1 4.45509e-09 
2216 1 -43.9058 6.32223 2.54835 1 2.76221e-09 
2220 1 -42.1635 6.57112 0.788346 1 3.81117e-09 
2636 1 -40.4212 6.82003 2.54835 1 5.00462e-09 
2640 1 -38.6789 7.06895 0.788337 1 1.03847e-08 
3066 1 -36.9366 7.31786 2.54837 1 1.11536e-08 
3109 1 -36.6877 5.57554 0.788343 1 4.5585e-09 
3070 1 -35.1943 7.56674 0.788337 1 6.06657e-09 
3107 1 -34.9454 5.82444 2.54836 1 8.20593e-09 
3486 1 -33.452 7.81565 2.54833 1 3.18832e-09 
3527 1 -31.4608 6.32224 2.5483 1 4.66823e-09 
3529 1 -33.2031 6.07334 0.78831 1 2.55717e-09 
3949 1 -29.7185 6.57115 0.78828 1 5.14698e-09 
3947 1 -27.9762 6.82005 2.54827 1 8.87653e-09 
4369 1 -26.2338 7.06895 0.788318 1 6.50878e-09 
4367 1 -24.4915 7.31785 2.54832 1 1.52222e-08 
4370 1 -24.2426 5.57554 0.788356 1 3.87594e-08 
4796 1 -22.5002 5.82444 2.54839 1 9.8532e-08 
4797 1 -21.0068 7.81566 2.54843 1 2.60153e-07 
4799 1 -22.7492 7.56674 0.788393 1 1.28538e-07 
4800 1 -20.758 6.07333 0.788394 1 2.77561e-07 
5216 1 -19.0155 6.32227 2.54841 1 6.623e-07 
5220 1 -17.2738 6.57118 0.788062 1 7.80201e-07 
5636 1 -15.5311 6.82016 2.54768 1 1.15954e-06 
5640 1 -13.7894 7.069 0.786618 1 4.85819e-06 
6066 1 -12.0466 7.31791 2.54524 1 3.29564e-05 
6070 1 -10.3019 7.56632 0.783878 1 0.000131694 
6109 1 -11.7981 5.57584 0.785067 1 1.86312e-05 
6107 1 -10.056 5.82425 2.54262 1 0.00016279 
6486 1 -8.56254 7.81497 2.54528 1 0.000349189 
6529 1 -8.30806 6.07262 0.782214 1 0.00062028 
6527 1 -6.57357 6.31859 2.54815 1 0.00159851 
6947 1 -3.13076 6.82239 2.54657 1 0.113353 
6949 1 -4.8388 6.56385 0.789226 1 0.0106226 
7320 1 -1.41457 7.25708 0.872832 5 2.83113 
7521 2 -1.04291 5.36751 2.49777 5 5.18016 
7522 2 0.593337 6.21294 0.65987 5 5.58871 
7684 2 2.51068 6.97612 1.98933 5 0.662326 
7686 2 4.7369 7.21204 0.963181 1 0.0279683 
7698 2 6.46649 5.4654 1.32289 1 0.00956242 
7921 2 6.69799 7.70505 2.37648 1 0.00545976 
7944 2 8.71291 5.71558 0.259915 1 0.00292485 
7945 2 8.94133 7.9519 1.31394 1 0.000653212 
7946 2 10.6921 6.21017 1.66398 1 0.000545114 
8285 2 12.9327 6.45682 0.604153 1 7.36715e-05 
8283 2 14.9217 6.95396 2.01158 1 6.62535e-05 
8684 2 17.1638 7.20193 0.95462 1 2.27818e-05 
8686 2 19.1555 7.69986 2.36225 1 1.13597e-05 
8702 2 18.908 5.45989 1.30637 1 5.66434e-06 
8704 2 21.1487 5.70847 0.250298 1 1.74741e-06 
9183 2 23.1396 6.20658 1.65831 1 1.43362e-06 
9186 2 21.3967 7.94858 1.30625 1 3.87405e-06 
9202 2 25.3801 6.45555 0.602406 1 4.31356e-07 
9764 2 27.3713 6.95368 2.01044 1 1.72365e-07 
9766 2 29.6116 7.20278 0.954556 1 4.70446e-08 
88 4 -60.3333 9.30918 2.54837 5 18.5856 
487 4 -56.8487 9.80698 2.54837 1 6.01203e-16 
489 4 -58.591 9.55808 0.788374 1 6.00004e-16 
490 4 -56.5998 8.06467 0.788374 1 1.00403e-16 
906 4 -54.8575 8.31357 2.54837 1 7.01201e-16 
909 4 -55.1064 10.0559 0.788374 1 7.02405e-16 
907 4 -53.3641 10.3048 2.54837 1 3.87467e-09 
910 4 -53.1152 8.56248 0.788374 1 4.63005e-09 
1329 1 -51.6218 10.5537 0.788381 1 9.03553e-10 
1326 1 -51.3729 8.81134 2.54837 1 3.18301e-09 
1330 1 -49.6306 9.06022 0.788379 1 5.33759e-09 
1756 1 -47.8883 9.30909 2.54838 1 2.04926e-09 
1760 1 -46.1459 9.55796 0.788383 1 2.78816e-09 
2176 1 -44.4036 9.80684 2.54837 1 2.52041e-09 
2219 1 -44.1547 8.06453 0.788361 1 2.01893e-09 
2180 1 -42.6613 10.0557 0.788368 1 4.33718e-09 
2217 1 -42.4124 8.31342 2.54837 1 4.62464e-09 
2596 1 -40.919 10.3046 2.54836 1 6.31922e-09 
2600 1 -39.1767 10.5535 0.788343 1 8.83898e-09 
2637 1 -38.9278 8.81125 2.54836 1 4.7035e-09 
2639 1 -40.6701 8.56231 0.788339 1 8.69651e-09 
3069 1 -37.1855 9.06014 0.788338 1 7.72772e-09 
3067 1 -35.4432 9.30905 2.54835 1 8.66519e-09 
3489 1 -33.7009 9.55797 0.788314 1 4.98167e-09 
3487 1 -31.9586 9.80688 2.54828 1 1.01271e-08 
3490 1 -31.7097 8.06456 0.788287 1 7.82656e-09 
3906 1 -29.9674 8.31347 2.54827 1 7.08927e-09 
3907 1 -28.474 10.3047 2.54827 1 8.21492e-09 
3909 1 -30.2163 10.0558 0.78828 1 6.93011e-09 
3910 1 -28.225 8.56237 0.788287 1 3.68351e-09 
4326 1 -26.4828 8.81126 2.54828 1 1.03623e-08 
4329 1 -26.7316 10.5536 0.788306 1 9.18261e-09 
4330 1 -24.7404 9.06016 0.788354 1 3.72834e-08 
4756 1 -22.998 9.30907 2.54838 1 7.70127e-08 
4760 1 -21.2558 9.55798 0.788404 1 2.15489e-07 
5176 1 -19.5134 9.80691 2.54837 1 3.20912e-07 
5219 1 -19.2648 8.06458 0.788319 1 3.49118e-07 
5180 1 -17.7714 10.0558 0.788123 1 4.10123e-07 
5217 1 -17.5222 8.31352 2.54819 1 5.73112e-07 
5596 1 -16.0287 10.3047 2.54778 1 1.09539e-06 
5639 1 -15.7804 8.56233 0.787615 1 1.01981e-06 
5600 1 -14.2866 10.5531 0.78694 1 5.42592e-06 
5637 1 -14.0376 8.81126 2.5469 1 5.53202e-06 
6067 1 -10.5535 9.30861 2.5454 1 7.16248e-05 
6069 1 -12.2949 9.05945 0.785583 1 3.08326e-05 
6489 1 -8.81228 9.55823 0.78298 1 0.000206195 
6487 1 -7.08034 9.8099 2.54479 1 0.00159875 
6490 1 -6.82219 8.06479 0.783281 1 0.00098629 
6906 1 -5.10504 8.31445 2.55267 1 0.00733782 
6909 1 -5.33549 10.0667 0.792362 1 0.0160012 
6907 1 -3.58015 10.2916 2.56768 1 0.0573123 
6910 1 -3.38155 8.58371 0.807906 1 0.207316 
7301 1 -1.5757 8.81746 2.69689 5 0.978938 
7302 1 -1.69887 10.3896 0.891159 5 1.95942 
7662 2 0.517589 8.84559 1.47705 5 4.07524 
7685 2 2.94073 8.9469 0.593661 1 0.275939 
7924 2 4.91407 9.43318 2.03011 1 0.0683997 
7926 2 7.17809 9.68683 0.963478 1 0.00627378 
8235 2 9.18111 10.1866 2.36701 1 0.00218514 
8264 2 11.1827 8.19827 0.252345 1 0.000282208 
8265 2 11.4293 10.4362 1.30729 1 0.000545394 
8266 2 13.1753 8.69558 1.65971 1 0.000184346 
8687 2 15.4191 8.94351 0.602643 1 7.25639e-05 
8685 2 17.4125 9.44183 2.00988 1 1.94393e-05 
9161 2 19.6542 9.69051 0.95409 1 5.87527e-06 
9163 2 21.6462 10.1888 2.36187 1 1.19892e-06 
9188 2 23.6376 8.19752 0.250337 1 1.2151e-06 
9740 2 25.6289 8.69572 1.65832 1 2.98751e-07 
9743 2 23.8868 10.4378 1.30616 1 3.16877e-07 
9765 2 27.8693 8.94483 0.602474 1 1.08899e-07 
10348 2 29.8605 9.44296 2.01052 1 2.43693e-08 
58 4 -60.8311 12.7938 2.54837 5 12.3904 
60 4 -60.5822 11.0515 0.788374 5 18.5856 
446 4 -58.8399 11.3004 2.54837 1 3.00002e-16 
447 4 -57.3465 13.2916 2.54837 1 7e-16 
449 4 -59.0888 13.0427 0.788374 1 1.00003e-16 
450 4 -57.0976 11.5493 0.788374 1 9.99605e-16 
866 4 -55.3553 11.7982 2.54837 1 1.0004e-15 
870 4 -53.613 12.0471 0.788374 1 2.2217e-09 
1286 1 -51.8707 12.296 2.54837 1 2.87322e-09 
1290 1 -50.1284 12.5448 0.788387 1 4.06561e-09 
1327 1 -49.8795 10.8025 2.54839 1 2.58165e-09 
1716 1 -48.3861 12.7937 2.5484 1 7.82615e-09 
1720 1 -46.6437 13.0426 0.788383 1 2.10901e-09 
1757 1 -46.3949 11.3003 2.54838 1 2.36266e-09 
1759 1 -48.1371 11.0514 0.788384 1 5.38124e-09 
2136 1 -44.9014 13.2915 2.54836 1 1.94543e-09 
2179 1 -44.6525 11.5492 0.788381 1 2.62407e-09 
2177 1 -42.9102 11.798 2.54837 1 5.28809e-09 
2599 1 -41.1679 12.0469 0.788352 1 4.1971e-09 
2597 1 -39.4256 12.2958 2.54834 1 1.44352e-08 
3026 1 -37.4344 10.8024 2.54835 1 4.95707e-09 
3029 1 -37.6833 12.5448 0.788331 1 4.50222e-09 
3027 1 -35.941 12.7937 2.54833 1 5.0032e-09 
3030 1 -35.6921 11.0514 0.788331 1 3.76158e-09 
3446 1 -33.9498 11.3003 2.54833 1 5.31409e-09 
3449 1 -34.1987 13.0426 0.788311 1 3.05696e-09 
3447 1 -32.4564 13.2915 2.5483 1 4.86199e-09 
3450 1 -32.2075 11.5492 0.788284 1 1.42244e-08 
3866 1 -30.4652 11.7981 2.54828 1 6.84049e-09 
3870 1 -28.7228 12.047 0.788284 1 4.76371e-09 
4286 1 -26.9806 12.2959 2.54828 1 1.08634e-08 
4290 1 -25.2382 12.5448 0.788341 1 1.71439e-08 
4327 1 -24.9893 10.8025 2.54832 1 1.98153e-08 
4716 1 -23.4959 12.7937 2.54836 1 4.70727e-08 
4759 1 -23.247 11.0514 0.788392 1 8.98411e-08 
4720 1 -21.7536 13.0426 0.788399 1 1.58954e-07 
4757 1 -21.5046 11.3003 2.54839 1 1.38616e-07 
5136 1 -20.0111 13.2915 2.54837 1 2.20994e-07 
5177 1 -18.0199 11.7981 2.54821 1 3.83767e-07 
5179 1 -19.7625 11.5492 0.788339 1 2.57476e-07 
5599 1 -16.2779 12.0468 0.787766 1 1.09664e-06 
5597 1 -14.5353 12.2957 2.54742 1 3.72108e-06 
6029 1 -12.7943 12.5444 0.786031 1 6.11353e-06 
6026 1 -12.5444 10.8021 2.54654 1 1.44055e-05 
6027 1 -11.0534 12.7937 2.54546 1 3.04697e-05 
6030 1 -10.8038 11.0506 0.784343 1 5.43388e-05 
6446 1 -9.06536 11.301 2.54367 1 0.000264439 
6447 1 -7.5711 13.2893 2.5357 1 0.00170324 
6449 1 -9.31337 13.0425 0.78262 1 0.000599753 
6450 1 -7.32093 11.5532 0.782729 1 0.00272533 
6866 1 -5.57457 11.7974 2.53635 1 0.0070721 
6870 1 -3.77234 12.0238 0.807898 1 0.108636 
7274 1 -2.03342 12.2228 2.56022 1 0.619738 
7278 1 -0.473552 12.4555 0.662304 5 5.86488 
7663 2 0.404657 11.1104 2.68425 5 6.69978 
7665 2 1.35429 10.7582 0.386848 5 3.44201 
7896 2 1.61703 13.0113 1.35751 5 6.22359 
7893 2 3.23294 11.194 1.74278 1 0.665885 
7898 2 3.74438 13.1473 0.214455 1 0.143739 
7925 2 5.44818 11.4206 0.619779 1 0.0238104 
8238 2 7.45109 11.9249 2.01613 1 0.00391312 
8240 2 9.69175 12.1773 0.953688 1 0.000584094 
8623 2 11.6908 12.6784 2.3581 1 0.000228496 
8659 2 13.6759 10.6848 0.250785 1 0.00013562 
8660 2 13.9316 12.9264 1.30431 1 5.65996e-05 
8661 2 15.6708 11.1838 1.65724 1 2.55002e-05 
9130 2 16.1726 13.1749 0.249635 1 2.05786e-05 
9164 2 17.9127 11.4325 0.601891 1 5.64546e-06 
9162 2 19.9045 11.931 2.00959 1 3.08554e-06 
9711 2 22.145 12.1799 0.954013 1 1.02683e-06 
9713 2 24.136 12.6781 2.36207 1 4.86103e-07 
9745 2 26.1271 10.6869 0.25036 1 1.28549e-07 
10317 2 28.1183 11.1851 1.65841 1 5.36796e-08 
10320 2 26.3762 12.9272 1.30631 1 2.06822e-07 
10322 2 28.6163 13.1763 0.250473 1 1.06853e-07 
10349 2 30.3584 11.4342 0.602561 1 4.06721e-08 
40 4 -61.08 14.5361 0.788374 5 18.5856 
406 4 -59.3377 14.785 2.54837 1 7e-16 
410 4 -57.5954 15.0339 0.788374 1 9.00002e-16 
826 4 -55.8531 15.2828 2.54837 1 2e-16 
830 4 -54.1108 15.5317 0.788374 1 1.00003e-16 
869 4 -55.6042 13.5405 0.788374 1 6.00003e-16 
867 4 -53.8619 13.7894 2.54837 1 4.8249e-10 
1246 4 -52.3685 15.7806 2.54837 1 7.23481e-09 
1289 4 -52.1196 14.0383 0.788374 1 1.39952e-08 
1287 1 -50.3773 14.2872 2.54838 1 2.87681e-09 
1717 1 -46.8927 14.7849 2.54837 1 3.68494e-09 
1719 1 -48.635 14.536 0.788377 1 8.88354e-09 
2139 1 -45.1503 15.0338 0.788372 1 1.8894e-09 
2137 1 -43.408 15.2827 2.54834 1 5.01113e-09 
2140 1 -43.1591 13.5404 0.788371 1 9.31632e-09 
2556 1 -41.4168 13.7893 2.54834 1 6.91474e-09 
2559 1 -41.6657 15.5316 0.788351 1 7.86732e-09 
2557 1 -39.9234 15.7805 2.54834 1 9.10906e-09 
2560 1 -39.6745 14.0382 0.788348 1 3.13943e-09 
2986 1 -37.9322 14.2871 2.54834 1 5.48918e-09 
2990 1 -36.1899 14.536 0.788338 1 4.91721e-09 
3406 1 -34.4476 14.7849 2.54834 1 3.1806e-09 
3410 1 -32.7053 15.0338 0.788301 1 2.56922e-09 
3826 1 -30.963 15.2827 2.5483 1 3.80937e-09 
3830 1 -29.2207 15.5316 0.788283 1 6.01768e-09 
3867 1 -28.9718 13.7893 2.54829 1 4.42932e-09 
3869 1 -30.7141 13.5404 0.788282 1 5.05082e-09 
4246 1 -27.4784 15.7805 2.54828 1 7.81979e-09 
4289 1 -27.2295 14.0382 0.7883 1 6.45959e-09 
4287 1 -25.4872 14.2871 2.5483 1 1.46659e-08 
4719 1 -23.7448 14.536 0.78838 1 6.76671e-08 
4717 1 -22.0024 14.7849 2.54839 1 1.07897e-07 
5137 1 -18.5176 15.2827 2.54832 1 6.11337e-07 
5139 1 -20.2602 15.0338 0.788361 1 2.44502e-07 
5140 1 -18.269 13.5403 0.788192 1 4.08354e-07 
5556 1 -16.5264 13.7893 2.54802 1 1.24449e-06 
5559 1 -16.7759 15.5315 0.787938 1 5.86459e-07 
5557 1 -15.0334 15.7806 2.54765 1 2.2793e-06 
5560 1 -14.7849 14.0381 0.787223 1 1.27707e-06 
5986 1 -13.0429 14.2872 2.54674 1 6.63405e-06 
5990 1 -11.3025 14.5362 0.784606 1 7.94122e-05 
6406 1 -9.56094 14.784 2.54139 1 0.00017824 
6410 1 -7.81333 15.0306 0.781582 1 0.000839939 
6826 1 -6.07133 15.2753 2.52936 1 0.00462332 
6869 1 -5.80232 13.536 0.785621 1 0.00720295 
6830 1 -4.30045 15.5389 0.784514 1 0.0199918 
6867 1 -4.05151 13.7789 2.52965 1 0.0194366 
7243 1 -2.55167 15.7731 2.53831 1 0.181572 
7246 1 -0.583134 15.9825 1.03437 5 6.27511 
7275 1 -0.519927 14.1127 2.5825 5 6.2265 
7277 1 -2.28201 14.0719 0.794551 1 0.320548 
7861 2 1.59775 15.2637 2.30957 5 5.117 
7894 2 3.58266 13.4516 2.69693 1 0.403269 
8203 2 3.97582 15.3964 1.28177 1 0.0878422 
8200 2 5.74749 13.6662 1.63234 1 0.0360876 
8201 2 5.94376 15.9201 2.69612 1 0.0174683 
8205 2 6.22163 15.6616 0.237754 1 0.00903967 
8239 2 7.96217 13.9194 0.586732 1 0.00559467 
8626 2 9.95393 14.4223 2.00026 1 0.00155647 
8628 2 12.1936 14.6697 0.950765 1 0.000299521 
9087 2 14.182 15.1683 2.35984 1 0.000103251 
9131 2 16.4219 15.4163 1.3054 1 3.30695e-05 
9132 2 18.1634 13.6735 1.65734 1 1.34535e-05 
9673 2 18.6616 15.6646 0.249879 1 1.08194e-05 
9714 2 20.4034 13.9221 0.601894 1 4.74022e-06 
9712 2 22.3939 14.4204 2.01002 1 1.35576e-06 
10282 2 24.634 14.6693 0.954247 1 5.1457e-07 
10284 2 26.6249 15.1674 2.36235 1 1.56987e-07 
10888 2 30.6073 13.6744 1.65858 1 3.15635e-08 
10891 2 28.865 15.4165 1.30651 1 6.14493e-08 
10893 2 31.1051 15.6656 0.250619 1 3.85841e-08 
20 4 -61.5779 18.0207 0.788374 5 18.5856 
38 4 -61.329 16.2784 2.54837 5 18.5856 
366 4 -59.8355 18.2696 2.54837 1 5.99999e-16 
409 4 -59.5866 16.5273 0.788374 1 8.00003e-16 
370 4 -58.0932 18.5185 0.788374 1 4.00002e-16 
407 4 -57.8443 16.7762 2.54837 1 1e-15 
827 4 -54.3597 17.274 2.54837 1 6.00001e-16 
829 4 -56.102 17.0251 0.788374 1 6.00004e-16 
1249 4 -52.6174 17.5229 0.788374 1 6.41875e-09 
1247 1 -50.8751 17.7718 2.54836 1 4.85508e-09 
1250 1 -50.6262 16.0295 0.788372 1 1.72031e-09 
1679 1 -49.1328 18.0207 0.788364 1 4.17425e-09 
1676 1 -48.8839 16.2783 2.54836 1 3.71862e-09 
1677 1 -47.3905 18.2695 2.54835 1 6.70517e-09 
1680 1 -47.1416 16.5272 0.788361 1 9.31117e-09 
2096 1 -45.3993 16.7761 2.54835 1 5.24195e-09 
2099 1 -45.6481 18.5184 0.788361 1 4.45506e-09 
2100 1 -43.6569 17.025 0.788358 1 3.24206e-09 
2516 1 -41.9146 17.2739 2.54834 1 4.23648e-09 
2520 1 -40.1723 17.5228 0.788346 1 1.17043e-08 
2946 1 -38.43 17.7717 2.54835 1 1.0697e-08 
2950 1 -36.6877 18.0206 0.788343 1 4.55851e-09 
2987 1 -36.4388 16.2783 2.54836 1 7.66326e-09 
2989 1 -38.1811 16.0294 0.788349 1 5.92648e-09 
3366 1 -34.9454 18.2695 2.54836 1 8.20592e-09 
3409 1 -34.6965 16.5272 0.788332 1 4.953e-09 
3370 1 -33.2031 18.5184 0.78831 1 2.55716e-09 
3407 1 -32.9542 16.7761 2.54833 1 2.22453e-09 
3829 1 -31.2119 17.025 0.788286 1 4.12487e-09 
3827 1 -29.4696 17.2739 2.54828 1 9.43693e-09 
4247 1 -25.9849 17.7717 2.54829 1 5.74856e-09 
4249 1 -27.7273 17.5228 0.788289 1 6.36911e-09 
4250 1 -25.736 16.0294 0.788324 1 7.59966e-09 
4676 1 -23.9937 16.2783 2.54834 1 2.09874e-08 
4679 1 -24.2426 18.0206 0.788356 1 3.87594e-08 
4677 1 -22.5002 18.2695 2.54839 1 9.8532e-08 
4680 1 -22.2514 16.5272 0.788399 1 1.56235e-07 
5096 1 -20.5089 16.7761 2.54842 1 3.40526e-07 
5099 1 -20.758 18.5184 0.788394 1 2.77561e-07 
5100 1 -18.7669 17.025 0.788278 1 4.09798e-07 
5516 1 -17.0243 17.274 2.54819 1 1.15644e-06 
5520 1 -15.283 17.5229 0.787446 1 2.5036e-06 
5946 1 -13.5403 17.7719 2.54657 1 5.15928e-06 
5989 1 -13.2924 16.0297 0.78631 1 1.34464e-05 
5950 1 -11.7981 18.0209 0.785067 1 1.86312e-05 
5987 1 -11.5502 16.2784 2.54462 1 3.02979e-05 
6366 1 -10.056 18.2693 2.54262 1 0.00016279 
6370 1 -8.30806 18.5177 0.782214 1 0.00062028 
6407 1 -8.06587 16.7737 2.53846 1 0.000621502 
6409 1 -9.80671 16.527 0.783128 1 6.16027e-05 
6829 1 -6.31439 17.0215 0.781053 1 0.00344619 
6827 1 -4.58322 17.2647 2.54569 1 0.0106252 
7245 1 -2.81382 17.5245 0.828522 1 0.225252 
7860 2 -1.04291 17.8126 2.49777 5 5.18016 
8158 2 2.27586 17.0962 0.916074 5 2.17388 
8161 2 0.593337 18.658 0.65987 5 5.58871 
8160 2 4.17167 17.663 2.37225 1 0.123779 
8585 2 6.46649 17.9105 1.32289 1 0.00956242 
8582 2 8.20417 16.1649 1.65196 1 0.00177832 
8587 2 8.71291 18.1607 0.259915 1 0.00292485 
8627 2 10.4534 16.4142 0.602804 1 0.000524683 
9039 2 10.6921 18.6553 1.66398 1 0.000545114 
9090 2 12.4375 16.9117 2.01045 1 0.000103598 
9092 2 14.6786 17.1592 0.954569 1 3.92037e-05 
9625 2 16.667 17.6567 2.3626 1 1.91206e-05 
9674 2 18.908 17.905 1.30637 1 5.66434e-06 
9675 2 20.6514 16.1627 1.65808 1 2.35851e-06 
10237 2 21.1487 18.1535 0.250298 1 1.74741e-06 
10239 2 23.1396 18.6517 1.65831 1 1.43362e-06 
10285 2 22.8916 16.4115 0.602237 1 7.9818e-07 
10283 2 24.8824 16.9096 2.01033 1 4.02619e-07 
10846 2 27.1226 17.1586 0.954449 1 1.22127e-07 
10848 2 29.1137 17.6567 2.36252 1 6.05587e-08 
18 4 -61.8268 19.763 2.54837 5 30.976 
369 4 -60.0844 20.0119 0.788374 5 6.1952 
367 4 -58.3421 20.2608 2.54837 1 2e-16 
786 4 -56.3509 18.7674 2.54837 1 4.00001e-16 
787 4 -54.8575 20.7587 2.54837 1 6.99999e-16 
789 4 -56.5998 20.5098 0.788374 1 3.00002e-16 
790 4 -54.6086 19.0163 0.788374 1 1.2e-15 
1206 4 -52.8663 19.2652 2.54837 1 6.95713e-09 
1209 4 -53.1152 21.0076 0.788374 1 4.6317e-09 
1207 1 -51.3729 21.2564 2.54837 1 3.18309e-09 
1210 1 -51.124 19.5141 0.788375 1 1.56889e-09 
1636 1 -49.3817 19.763 2.54836 1 5.38244e-09 
1640 1 -47.6393 20.0119 0.788375 1 4.9712e-09 
2056 1 -45.897 20.2607 2.54837 1 4.71008e-09 
2060 1 -44.1547 20.5096 0.788361 1 2.01892e-09 
2097 1 -43.9058 18.7673 2.54835 1 2.76221e-09 
2476 1 -42.4124 20.7585 2.54837 1 4.62464e-09 
2519 1 -42.1635 19.0162 0.788346 1 3.81115e-09 
2480 1 -40.6701 21.0074 0.788339 1 8.69645e-09 
2517 1 -40.4212 19.2651 2.54835 1 5.00467e-09 
2906 1 -38.9278 21.2563 2.54836 1 4.70349e-09 
2949 1 -38.6789 19.514 0.788337 1 1.03847e-08 
2947 1 -36.9366 19.7629 2.54837 1 1.11536e-08 
3367 1 -33.452 20.2607 2.54833 1 3.1883e-09 
3369 1 -35.1943 20.0118 0.788337 1 6.06655e-09 
3786 1 -31.4608 18.7673 2.5483 1 4.66819e-09 
3789 1 -31.7097 20.5096 0.788287 1 7.82655e-09 
3787 1 -29.9674 20.7585 2.54827 1 7.08928e-09 
3790 1 -29.7185 19.0162 0.78828 1 5.147e-09 
4206 1 -27.9762 19.2651 2.54827 1 8.87652e-09 
4207 1 -26.4828 21.2563 2.54828 1 1.03622e-08 
4209 1 -28.225 21.0075 0.788287 1 3.68351e-09 
4210 1 -26.2338 19.514 0.788318 1 6.50879e-09 
4636 1 -24.4915 19.7629 2.54832 1 1.52222e-08 
4640 1 -22.7492 20.0118 0.788393 1 1.28538e-07 
5056 1 -21.0068 20.2607 2.54843 1 2.60153e-07 
5060 1 -19.2648 20.5097 0.788319 1 3.49118e-07 
5097 1 -19.0155 18.7673 2.54841 1 6.62299e-07 
5476 1 -17.5222 20.7586 2.54819 1 5.73112e-07 
5480 1 -15.7804 21.0074 0.787615 1 1.01981e-06 
5517 1 -15.5311 19.2652 2.54768 1 1.15954e-06 
5519 1 -17.2738 19.0163 0.788062 1 7.802e-07 
5906 1 -14.0376 21.2563 2.5469 1 5.53202e-06 
5949 1 -13.7894 19.5141 0.786618 1 4.85819e-06 
5947 1 -12.0466 19.763 2.54524 1 3.29564e-05 
6369 1 -10.3019 20.0114 0.783878 1 0.000131694 
6367 1 -8.56254 20.2601 2.54528 1 0.000349189 
6786 1 -6.57357 18.7637 2.54815 1 0.00159851 
6787 1 -5.10504 20.7595 2.55267 1 0.00733782 
6789 1 -6.82219 20.5099 0.783281 1 0.00098629 
6790 1 -4.8388 19.0089 0.789226 1 0.0106226 
7206 1 -3.13076 19.2675 2.54657 1 0.113353 
7209 1 -3.38155 21.0288 0.807906 1 0.207316 
7207 1 -1.5757 21.2625 2.69689 5 0.978938 
7210 1 -1.41457 19.7022 0.872832 5 2.83113 
8112 2 0.517589 21.2907 1.47705 5 4.07524 
8159 2 2.51068 19.4212 1.98933 5 0.662326 
8535 2 4.7369 19.6571 0.963181 1 0.0279683 
8537 2 6.69799 20.1501 2.37648 1 0.00545976 
9042 2 8.94133 20.397 1.31394 1 0.000653212 
9044 2 11.1827 20.6433 0.252345 1 0.000282208 
9091 2 12.9327 18.9019 0.604153 1 7.36715e-05 
9575 2 13.1753 21.1407 1.65971 1 0.000184346 
9628 2 14.9217 19.399 2.01158 1 6.62535e-05 
9630 2 17.1638 19.647 0.95462 1 2.27818e-05 
10185 2 19.1555 20.1449 2.36225 1 1.13597e-05 
10238 2 21.3967 20.3937 1.30625 1 3.87405e-06 
10797 2 23.6376 20.6426 0.250337 1 1.2151e-06 
10799 2 25.6289 21.1408 1.65832 1 2.98751e-07 
10849 2 25.3801 18.9006 0.602406 1 4.31356e-07 
10847 2 27.3713 19.3988 2.01044 1 1.72365e-07 
11407 2 29.6116 19.6479 0.954556 1 4.70446e-08 
326 4 -60.3333 21.7543 2.54837 5 18.5856 
329 4 -60.5822 23.4966 0.788374 5 18.5856 
327 4 -58.8399 23.7455 2.54837 1 4e-16 
330 4 -58.591 22.0032 0.788374 1 6.00002e-16 
746 4 -56.8487 22.2521 2.54837 1 7.00001e-16 
749 4 -57.0976 23.9944 0.788374 1 1.2e-15 
750 4 -55.1064 22.501 0.788374 1 5.00003e-16 
1166 4 -53.3641 22.7499 2.54837 1 3.87524e-09 
1170 1 -51.6218 22.9987 0.788381 1 9.03539e-10 
1596 1 -49.8795 23.2476 2.54839 1 2.58166e-09 
1639 1 -49.6306 21.5053 0.788379 1 5.33722e-09 
1600 1 -48.1371 23.4965 0.788384 1 5.38105e-09 
1637 1 -47.8883 21.7542 2.54838 1 2.04925e-09 
2016 1 -46.3949 23.7454 2.54838 1 2.3626e-09 
2020 1 -44.6525 23.9942 0.788381 1 2.62409e-09 
2057 1 -44.4036 22.2519 2.54837 1 2.5204e-09 
2059 1 -46.1459 22.003 0.788383 1 2.78817e-09 
2479 1 -42.6613 22.5008 0.788368 1 4.33716e-09 
2477 1 -40.919 22.7497 2.54836 1 6.31922e-09 
2909 1 -39.1767 22.9986 0.788343 1 8.83899e-09 
2907 1 -37.4344 23.2475 2.54835 1 4.95703e-09 
2910 1 -37.1855 21.5052 0.788338 1 7.72775e-09 
3326 1 -35.4432 21.7541 2.54835 1 8.66519e-09 
3327 1 -33.9498 23.7454 2.54833 1 5.31408e-09 
3329 1 -35.6921 23.4964 0.788331 1 3.76159e-09 
3330 1 -33.7009 22.003 0.788314 1 4.98168e-09 
3746 1 -31.9586 22.252 2.54828 1 1.01271e-08 
3749 1 -32.2075 23.9943 0.788284 1 1.42244e-08 
3750 1 -30.2163 22.5009 0.78828 1 6.93013e-09 
4166 1 -28.474 22.7498 2.54827 1 8.21496e-09 
4170 1 -26.7316 22.9987 0.788306 1 9.18257e-09 
4596 1 -24.9893 23.2476 2.54832 1 1.98153e-08 
4600 1 -23.247 23.4965 0.788392 1 8.98411e-08 
4639 1 -24.7404 21.5052 0.788354 1 3.72834e-08 
4637 1 -22.998 21.7541 2.54838 1 7.70127e-08 
5016 1 -21.5046 23.7454 2.54839 1 1.38616e-07 
5059 1 -21.2558 22.0031 0.788404 1 2.15489e-07 
5020 1 -19.7625 23.9943 0.788339 1 2.57476e-07 
5057 1 -19.5134 22.252 2.54837 1 3.20912e-07 
5477 1 -16.0287 22.7497 2.54778 1 1.0954e-06 
5479 1 -17.7714 22.5008 0.788123 1 4.10123e-07 
5909 1 -14.2866 22.9982 0.78694 1 5.42592e-06 
5907 1 -12.5444 23.2472 2.54654 1 1.44055e-05 
5910 1 -12.2949 21.5045 0.785583 1 3.08326e-05 
6326 1 -10.5535 21.7537 2.5454 1 7.16248e-05 
6329 1 -10.8038 23.4957 0.784343 1 5.43388e-05 
6327 1 -9.06536 23.7461 2.54367 1 0.000264439 
6330 1 -8.81228 22.0033 0.78298 1 0.000206195 
6746 1 -7.08034 22.255 2.54479 1 0.00159875 
6749 1 -7.32093 23.9983 0.782729 1 0.00272533 
6750 1 -5.33549 22.5117 0.792362 1 0.0160012 
7166 1 -3.58015 22.7367 2.56768 1 0.0573123 
7170 1 -1.69887 22.8347 0.891159 5 1.95942 
8485 2 0.404657 23.5555 2.68425 5 6.69978 
8486 2 1.35429 23.2033 0.386848 5 3.44201 
8488 2 3.23294 23.639 1.74278 1 0.665885 
8536 2 4.91407 21.8783 2.03011 1 0.0683997 
8538 2 2.94073 21.392 0.593661 1 0.275939 
8991 2 7.17809 22.1319 0.963478 1 0.00627378 
8994 2 5.44818 23.8657 0.619779 1 0.0238104 
8993 2 9.18111 22.6317 2.36701 1 0.00218514 
9578 2 11.4293 22.8813 1.30729 1 0.000545394 
9580 2 13.6759 23.1299 0.250785 1 0.00013562 
9629 2 15.4191 21.3886 0.602643 1 7.25639e-05 