ITEM: TIMESTEP
0
ITEM: NUMBER OF ATOMS
33712
ITEM: BOX BOUNDS ss pp pp
-73.2577 128.876
0 43.6821
0 41.6492
ITEM: ATOMS id type x y z c_cna c_csd 
1534 4 -72.922 0.982942 1.10287 5 37.1712 
1550 4 -70.5726 1.55024 1.69786 1 8.00101e-16 
2184 4 -68.2233 2.11754 2.29285 1 1.20058e-15 
2188 4 -66.3774 0.557467 1.69786 1 7.99799e-16 
2858 4 -65.2027 2.40119 0.507883 1 1.53532e-09 
2879 4 -64.0281 1.12477 2.29285 1 8.9644e-09 
3551 1 -61.0075 1.40836 0.50793 1 1.21335e-09 
3552 1 -59.8328 0.131906 2.29291 1 2.63882e-09 
3554 1 -58.6581 1.97561 1.10297 1 1.9475e-09 
4229 1 -56.8122 0.415498 0.508039 1 9.19192e-10 
4245 1 -56.3088 2.54286 1.69803 1 1.18177e-09 
4247 1 -54.4629 0.982735 1.10311 1 3.67233e-09 
4916 1 -52.1135 1.54999 1.69819 1 6.82342e-09 
4945 1 -49.7642 2.11728 2.29328 1 1.36011e-09 
5612 1 -46.7436 2.40092 0.508483 1 3.59318e-09 
5614 1 -47.9183 0.557199 1.6984 1 2.16532e-09 
5615 1 -45.569 1.12448 2.29352 1 3.05477e-09 
6286 1 -42.5484 1.40809 0.508747 1 1.92137e-09 
6312 1 -41.3738 0.131645 2.29379 1 1.45508e-09 
6977 1 -40.1991 1.97534 1.10389 1 1.60303e-09 
6979 1 -38.3532 0.415239 0.508995 1 3.33066e-09 
6980 1 -37.8498 2.54258 1.69902 1 2.20763e-09 
7653 1 -36.0039 0.98248 1.10412 1 4.99063e-09 
7677 1 -33.6546 1.5497 1.69924 1 1.2611e-09 
8343 1 -31.3052 2.11693 2.29437 1 2.26819e-09 
8347 1 -29.4593 0.556812 1.69951 1 5.91334e-09 
9018 1 -28.2847 2.40049 0.509619 1 3.74686e-09 
9039 1 -27.11 1.12403 2.29468 1 4.23186e-09 
9711 1 -24.0894 1.40753 0.50998 1 1.16318e-08 
9712 1 -22.9148 0.131055 2.29505 1 1.80742e-08 
9714 1 -21.7401 1.97474 1.10518 1 4.14496e-08 
10375 1 -19.8943 0.414382 0.51051 1 1.56918e-07 
10391 1 -19.3909 2.54195 1.70042 1 1.356e-07 
10393 1 -17.5451 0.981386 1.10583 1 7.086e-07 
10956 1 -15.1963 1.54829 1.70102 1 3.44584e-06 
10985 1 -12.848 2.11514 2.29593 1 2.02267e-05 
11436 1 -11.0031 0.55152 1.70235 1 0.000256608 
11434 1 -9.82874 2.39289 0.512117 1 0.000619903 
11437 1 -8.65918 1.11459 2.29667 1 0.00151656 
11775 1 -5.60342 1.38983 0.520821 1 0.0165994 
11801 1 -4.44916 0.10577 2.30587 1 0.0777051 
12018 1 -3.18944 1.91154 1.11243 5 0.520303 
12020 1 -0.985712 0.361076 0.200154 5 9.69638 
12021 1 -0.769063 2.32762 1.82477 5 7.82979 
16830 2 1.46744 1.89125 0.755177 5 0.599615 
16834 2 3.49208 1.09887 1.94649 1 0.03857 
17717 2 5.69672 0.952942 0.753115 1 0.00301933 
17718 2 7.54595 2.51043 1.34595 1 0.000398602 
12524 2 7.719 0.0995454 1.93962 1 0.000334731 
17722 2 9.56269 1.65935 2.53548 1 2.73048e-05 
17772 2 9.73051 2.36805 0.156394 1 3.45379e-05 
18602 2 11.7449 1.51689 1.34607 1 3.36219e-06 
18604 2 13.7585 0.665695 2.53611 1 6.45219e-07 
18605 2 13.9267 1.37464 0.156314 1 1.72951e-06 
19441 2 15.9402 0.523618 1.34631 1 5.67585e-07 
19491 2 18.1217 0.381657 0.156453 1 2.90639e-07 
19492 2 17.7858 2.08369 1.94133 1 1.14995e-07 
19495 2 19.9674 1.94166 0.751571 1 1.03135e-07 
20330 2 21.9811 1.09052 1.94172 1 4.49433e-08 
20382 2 24.1626 0.948432 0.751919 1 1.59496e-08 
14362 2 26.1763 0.0972551 1.94209 1 1.39432e-08 
20386 2 26.0085 2.5083 1.3471 1 1.32374e-08 
1546 4 -71.2439 4.95404 1.10287 5 6.1952 
1548 4 -72.4185 3.11031 2.29285 5 18.5856 
2183 4 -69.398 3.39396 0.507883 1 7.9988e-16 
2186 4 -67.0486 3.96126 1.10287 1 1.00036e-15 
2875 4 -64.6993 4.52856 1.69786 1 3.39192e-09 
2877 1 -62.8534 2.96846 1.1029 1 4.35645e-09 
2878 1 -62.3499 5.09583 2.29287 1 2.98226e-09 
3549 1 -60.504 3.53571 1.69792 1 3.66546e-09 
3580 1 -58.1547 4.10297 2.29297 1 2.29226e-09 
4243 1 -55.1341 4.38656 0.508083 1 4.06126e-09 
4248 1 -53.9594 3.11012 2.2931 1 2.1349e-09 
4913 1 -52.7848 4.95382 1.10316 1 3.42418e-09 
4917 1 -50.9389 3.39371 0.508253 1 4.60971e-09 
5610 1 -48.5895 3.961 1.10337 1 1.18694e-09 
5613 1 -46.2402 4.52829 1.69849 1 2.06862e-09 
6282 1 -44.3943 2.96819 1.10363 1 2.65094e-09 
6306 1 -43.8909 5.09556 2.29363 1 7.88169e-10 
6308 1 -42.045 3.53544 1.69876 1 4.44482e-09 
6974 1 -39.6957 4.10268 2.29391 1 8.70744e-09 
7652 1 -36.6751 4.38628 0.509096 1 1.57106e-09 
7675 1 -35.5005 3.10982 2.29412 1 2.93918e-09 
7673 1 -34.3258 4.95351 1.10421 1 4.72865e-09 
8342 1 -32.4799 3.39339 0.509334 1 6.17428e-10 
8345 1 -30.1306 3.96063 1.10448 1 4.30636e-09 
9035 1 -27.7813 4.52786 1.69964 1 5.50439e-09 
9037 1 -25.9353 2.96771 1.10479 1 6.84003e-09 
9038 1 -25.4319 5.09511 2.29478 1 1.26595e-08 
9709 1 -23.586 3.53496 1.69994 1 2.02484e-08 
9740 1 -21.2367 4.10224 2.29511 1 6.16966e-08 
10389 1 -18.2163 4.38564 0.510533 1 2.77852e-07 
10394 1 -17.0417 3.10922 2.29559 1 6.32244e-07 
10953 1 -15.8671 4.95293 1.10564 1 1.40631e-06 
10957 1 -14.0218 3.39174 0.511072 1 6.49985e-06 
11432 1 -11.6736 3.95845 1.10564 1 3.73236e-05 
11435 1 -9.32631 4.52527 1.69925 1 0.000232561 
11771 1 -7.48614 2.9533 1.10542 1 0.00400747 
11795 1 -6.97956 5.09191 2.29154 1 0.00294871 
11797 1 -5.1524 3.50215 1.69244 1 0.0479116 
12015 1 -2.88927 4.05153 2.32293 1 0.344632 
12016 1 -2.20948 3.85856 0.0303511 5 6.37727 
16001 2 1.31303 3.61405 2.50146 5 4.83679 
16051 2 1.23121 4.37439 0.189347 5 2.72245 
16884 2 3.37089 3.49394 1.31673 1 0.0846294 
16885 2 5.20563 5.06081 1.94261 1 0.00404164 
16886 2 5.35928 2.65062 2.53682 1 0.00469093 
16887 2 5.53955 3.36355 0.14875 1 0.00495669 
16941 2 7.38149 4.92183 0.750051 1 0.000282321 
17773 2 9.3938 4.06982 1.94053 1 1.9444e-05 
17776 2 11.5762 3.92798 0.750817 1 2.83056e-06 
18603 2 13.5903 3.07688 1.94088 1 4.85845e-07 
18659 2 15.7722 2.93476 0.751207 1 2.63057e-07 
18660 2 15.436 4.63683 2.53587 1 1.32263e-07 
18663 2 17.6178 4.49479 1.34623 1 6.26778e-08 
19493 2 19.6316 3.64367 2.53642 1 4.34922e-08 
19547 2 19.7995 4.35274 0.156536 1 6.71015e-08 
19549 2 21.8132 3.50158 1.3467 1 3.08746e-08 
19553 2 23.6591 5.06144 1.94184 1 8.69447e-09 
20381 2 23.9948 3.35948 0.15692 1 1.92977e-08 
20383 2 23.8269 2.65039 2.53686 1 1.37174e-08 
20437 2 25.8406 4.91934 0.752096 1 9.78301e-09 
1544 4 -73.0898 6.51411 1.69786 5 37.1712 
1547 4 -70.7404 7.08141 2.29285 1 1.20008e-15 
2181 4 -68.8945 5.52134 1.69786 1 8.998e-16 
2182 4 -67.7199 7.36506 0.507883 1 6.9988e-16 
2214 4 -66.5452 6.08864 2.29285 1 7.0008e-16 
2873 4 -63.5246 6.37229 0.507883 1 1.61721e-08 
3546 1 -61.1753 6.93952 1.10291 1 2.47781e-09 
3550 1 -59.3294 5.37941 0.507965 1 1.78221e-09 
3576 1 -58.8259 7.50676 1.69796 1 1.96169e-09 
4241 1 -56.98 5.94667 1.10302 1 2.46588e-09 
4244 1 -54.6307 6.51393 1.69808 1 1.44226e-09 
4939 1 -52.2813 7.08119 2.29315 1 3.91549e-09 
4941 1 -50.4354 5.52109 1.69825 1 2.2544e-09 
5606 1 -49.2608 7.36481 0.508335 1 1.35346e-09 
5607 1 -48.0861 6.08838 2.29337 1 2.12831e-09 
6281 1 -45.0655 6.372 0.508591 1 1.4255e-09 
6304 1 -42.7162 6.93926 1.10372 1 2.08207e-09 
6973 1 -40.8703 5.37914 0.508862 1 4.59156e-09 
6971 1 -40.3669 7.50651 1.69886 1 2.23285e-09 
6976 1 -38.521 5.94637 1.104 1 9.38351e-09 
7671 1 -36.1717 6.51361 1.6991 1 3.5832e-09 
7674 1 -33.8224 7.08085 2.29423 1 1.65392e-09 
8340 1 -31.9765 5.52075 1.69935 1 4.86515e-09 
8341 1 -30.8018 7.36443 0.509453 1 1.24492e-09 
8373 1 -29.6272 6.08797 2.2945 1 9.19429e-10 
9033 1 -26.6066 6.37155 0.509747 1 9.55397e-09 
9706 1 -24.2573 6.93882 1.10486 1 2.93464e-08 
9710 1 -22.4114 5.37866 0.510049 1 3.6141e-08 
9736 1 -21.9079 7.50614 1.70002 1 8.34881e-08 
10387 1 -20.0621 5.94598 1.10522 1 1.17762e-07 
10390 1 -17.7129 6.51337 1.70034 1 4.52105e-07 
10979 1 -15.3639 7.08087 2.29529 1 1.87558e-06 
10981 1 -13.5179 5.52037 1.70053 1 9.47038e-06 
11428 1 -12.3436 7.36449 0.510496 1 2.76444e-05 
11429 1 -11.1685 6.08807 2.29511 1 7.54911e-05 
11770 1 -8.157 6.37014 0.508456 1 0.000947342 
11793 1 -5.82291 6.9452 1.10625 1 0.00801002 
12012 1 -3.48426 7.50073 1.70891 1 0.0271344 
12014 1 -4.02353 5.37503 0.53176 1 0.0973872 
12017 1 -1.62748 5.90857 1.11197 5 1.56322 
16052 2 0.861782 6.14924 1.88148 5 6.93333 
16053 2 2.84094 7.59965 2.53876 1 0.0881219 
16055 2 3.18048 5.89817 0.772822 1 0.109853 
16109 2 5.02617 7.47171 1.34641 1 0.00205825 
16940 2 7.21187 7.33057 0.156458 1 0.000204231 
16942 2 7.04353 6.62385 2.53621 1 0.00017854 
16945 2 9.22641 6.48125 1.34576 1 1.56705e-05 
17774 2 11.2402 5.62989 2.53536 1 1.10835e-06 
17828 2 11.4082 6.33916 0.155635 1 1.50241e-06 
17830 2 13.4221 5.48793 1.34569 1 3.04902e-07 
17834 2 15.268 7.04788 1.94074 1 1.49981e-07 
18658 2 15.6041 5.34588 0.156062 1 1.38813e-07 
18714 2 17.4498 6.90586 0.751132 1 6.38362e-08 
18716 2 19.4636 6.05474 1.94135 1 4.28537e-08 
18720 2 21.3095 7.61462 2.53651 1 3.94766e-08 
19548 2 21.6453 5.91265 0.751658 1 2.22827e-08 
19603 2 23.4912 7.47249 1.34681 1 6.76057e-09 
19605 2 25.5049 6.62129 2.537 1 8.90101e-09 
19606 2 25.6728 7.33039 0.157081 1 9.47228e-09 
20438 2 27.6865 6.47922 1.34727 1 7.26353e-09 
1542 4 -71.9151 8.35783 0.507883 5 12.3904 
2178 4 -69.5658 8.92513 1.10287 1 1.20116e-15 
2210 4 -67.2164 9.49243 1.69786 1 9.99199e-16 
2868 4 -64.8671 10.0597 2.29285 1 2.1875e-09 
2871 4 -65.3705 7.93236 1.10287 1 1.05216e-09 
2874 1 -63.0212 8.49963 1.69787 1 4.88093e-09 
3574 1 -60.6718 9.06688 2.29292 1 6.24465e-09 
4237 1 -57.6513 9.35046 0.508031 1 1.87487e-09 
4238 1 -56.4766 8.07402 2.29303 1 2.00053e-09 
4240 1 -55.3019 9.91772 1.10309 1 1.32459e-09 
4912 1 -53.456 8.35764 0.508151 1 2.8074e-09 
4937 1 -51.1067 8.92491 1.10323 1 3.47606e-09 
5604 1 -48.7573 9.49218 1.69834 1 1.63506e-09 
5609 1 -46.9114 7.93209 1.10346 1 5.021e-10 
5641 1 -46.408 10.0595 2.29348 1 2.24643e-09 
6302 1 -44.5621 8.49937 1.69859 1 1.52675e-09 
6305 1 -42.2128 9.06663 2.29372 1 2.62409e-09 
6972 1 -39.1923 9.35021 0.508955 1 2.29929e-09 
7006 1 -38.0176 8.07374 2.29398 1 1.22077e-09 
7667 1 -36.843 9.91744 1.10407 1 1.74671e-09 
7669 1 -34.9971 8.35731 0.50919 1 3.54317e-09 
8337 1 -32.6477 8.92454 1.10433 1 1.49581e-09 
8369 1 -30.2984 9.49178 1.69948 1 1.81962e-09 
9028 1 -27.9491 10.059 2.29463 1 4.07145e-09 
9031 1 -28.4525 7.93166 1.10461 1 1.81869e-09 
9034 1 -26.1032 8.49892 1.69976 1 4.62968e-09 
9734 1 -23.7538 9.0662 2.29489 1 2.89724e-08 
10383 1 -20.7333 9.34989 0.510131 1 1.63235e-07 
10384 1 -19.5586 8.07353 2.29518 1 3.14891e-07 
10386 1 -18.3839 9.91736 1.10529 1 6.43981e-07 
10952 1 -16.5384 8.35721 0.510389 1 9.01573e-07 
10977 1 -14.1894 8.92484 1.10524 1 3.82199e-06 
11426 1 -11.8408 9.49268 1.69991 1 2.54065e-05 
11431 1 -9.994 7.93302 1.10545 1 0.000251138 
11463 1 -9.49303 10.0609 2.29498 1 0.000230781 
11791 1 -7.64282 8.50452 1.70327 1 0.00234154 
11794 1 -5.27775 9.07602 2.31016 1 0.0201258 
12013 1 -2.27688 9.3721 0.537925 5 1.36066 
12047 1 -1.18231 8.01389 2.2607 5 5.84124 
15242 2 0.933033 8.55781 1.38593 5 4.82348 
15295 2 2.67528 10.0651 1.96316 5 0.485178 
16107 2 3.02783 8.33907 0.150079 1 0.0774568 
16108 2 4.86096 9.88904 0.755256 1 0.00309808 
16113 2 6.87604 9.03342 1.93879 1 0.000184887 
16996 2 9.05803 8.89195 0.749886 1 1.27138e-05 
16998 2 11.0721 8.04114 1.94025 1 1.33321e-06 
17002 2 12.9183 9.60096 2.53525 1 1.11259e-06 
17829 2 13.2541 7.89903 0.750577 1 1.80178e-07 
17884 2 15.1001 9.45893 1.34565 1 2.8165e-07 
17886 2 17.114 8.6078 2.53591 1 1.95294e-07 
17887 2 17.2819 9.31692 0.156034 1 1.04294e-07 
18715 2 19.2957 8.46579 1.34628 1 7.10874e-08 
18770 2 21.4774 8.32371 0.156612 1 1.84941e-08 
18771 2 21.1417 10.0257 1.94147 1 6.77935e-08 
18774 2 23.3233 9.88355 0.751777 1 1.33132e-08 
19604 2 25.3371 9.03234 1.94197 1 9.1168e-09 
19660 2 27.5187 8.89027 0.752243 1 5.58868e-09 
1538 4 -73.2576 12.0453 2.29285 5 37.1712 
1543 4 -71.4117 10.4852 1.69786 5 6.1952 
2177 4 -70.237 12.3289 0.507883 1 1.19988e-15 
2208 4 -69.0623 11.0525 2.29285 1 8.00481e-16 
2867 4 -66.0418 11.3362 0.507883 1 1.20048e-15 
2870 4 -63.6924 11.9035 1.10287 1 1.19233e-08 
3545 1 -61.8465 10.3433 0.507913 1 3.66208e-09 
3570 1 -61.3431 12.4707 1.6979 1 3.23598e-09 
3572 1 -59.4972 10.9106 1.10296 1 3.42708e-09 
4235 1 -57.1478 11.4778 1.69803 1 5.07123e-09 
4275 1 -54.7985 12.0451 2.29308 1 4.47089e-10 
4933 1 -51.7779 12.3287 0.508205 1 6.80552e-09 
4935 1 -52.9526 10.485 1.69815 1 2.20574e-09 
4938 1 -50.6032 11.0523 2.29323 1 4.71084e-09 
5605 1 -47.5827 11.3359 0.50844 1 2.44971e-09 
6298 1 -45.2334 11.9032 1.10355 1 1.49336e-09 
6300 1 -43.3875 10.3431 0.508684 1 9.57713e-10 
6301 1 -42.884 12.4705 1.69867 1 2.93354e-09 
6968 1 -41.0382 10.9103 1.10381 1 2.30341e-09 
7002 1 -38.6889 11.4776 1.69895 1 3.03131e-09 
7664 1 -36.3395 12.0448 2.29408 1 2.88627e-09 
7670 1 -34.4936 10.4847 1.69921 1 4.19227e-09 
8336 1 -33.319 12.3283 0.50931 1 4.04929e-09 
8367 1 -32.1443 11.0519 2.29435 1 5.97217e-09 
9027 1 -29.1237 11.3355 0.509584 1 1.29595e-09 
9030 1 -26.7744 11.9027 1.10472 1 3.44839e-09 
9705 1 -24.9285 10.3426 0.509837 1 1.36022e-08 
9730 1 -24.425 12.4699 1.69987 1 2.72086e-08 
9732 1 -22.5791 10.9099 1.10501 1 5.00569e-08 
10381 1 -20.2297 11.4772 1.70025 1 2.52053e-07 
10421 1 -17.8801 12.0446 2.29555 1 1.30267e-06 
10975 1 -16.0346 10.485 1.70033 1 2.58315e-06 
10973 1 -14.8599 12.329 0.51029 1 5.07015e-06 
10978 1 -13.6851 11.053 2.29519 1 1.0659e-05 
11427 1 -10.6673 11.3361 0.50943 1 0.000128034 
11787 1 -8.32325 11.9035 1.10481 1 0.00136587 
11789 1 -6.46603 10.3465 0.515631 1 0.00491133 
11790 1 -5.98805 12.4689 1.69848 1 0.0162715 
12009 1 -4.09844 10.9156 1.11513 1 0.0414401 
12043 1 -1.66455 11.4862 1.67287 5 1.96724 
14543 2 0.454907 12.5288 2.53521 5 5.87117 
15293 2 0.626375 10.8529 0.811741 5 2.50759 
15294 2 2.48657 12.4453 1.29659 5 0.512158 
15299 2 4.51823 11.5996 2.53179 1 0.0117103 
15349 2 4.6944 12.2954 0.150221 1 0.0067091 
16163 2 6.70665 11.4469 1.34479 1 0.00031519 
16165 2 8.72189 10.5942 2.53399 1 2.93452e-05 
16166 2 8.8898 11.3035 0.154939 1 1.195e-05 
16997 2 10.9041 10.4521 1.34489 1 2.41354e-06 
17052 2 13.0861 10.31 0.155405 1 4.33519e-07 
17053 2 12.7506 12.0119 1.94017 1 2.45427e-06 
17056 2 14.9323 11.8699 0.750578 1 6.10238e-07 
17885 2 16.9462 11.0188 1.94086 1 2.94118e-07 
17941 2 19.1279 10.8768 0.751222 1 1.14011e-07 
17942 2 18.7923 12.5787 2.53616 1 1.45146e-07 
17945 2 20.9739 12.4367 1.34646 1 8.43789e-08 
18772 2 22.9877 11.5855 2.53666 1 3.5268e-08 
18826 2 23.1555 12.2946 0.156745 1 2.58219e-08 
18828 2 25.1693 11.4434 1.34694 1 1.24703e-08 
19659 2 27.3508 11.3013 0.157212 1 4.17052e-09 
19661 2 27.183 10.5922 2.53713 1 1.01475e-08 
1540 4 -72.0829 13.889 1.10287 5 12.3904 
2204 4 -69.7336 14.4563 1.69786 1 4.998e-16 
2206 4 -67.8877 12.8962 1.10287 1 1.00036e-15 
2207 4 -67.3842 15.0236 2.29285 1 7.0008e-16 
2865 4 -65.5383 13.4635 1.69786 1 5.9593e-10 
2866 4 -64.3637 15.3073 0.507883 1 4.52686e-09 
2908 1 -63.189 14.0308 2.29286 1 5.51342e-09 
3568 1 -60.1684 14.3144 0.507955 1 1.18043e-09 
3573 1 -58.9937 13.0379 2.29295 1 4.10224e-09 
4232 1 -57.8191 14.8816 1.10302 1 1.82333e-09 
4236 1 -55.9732 13.3215 0.508086 1 1.19458e-09 
4931 1 -53.6238 13.8888 1.10313 1 7.77664e-10 
4934 1 -51.2745 14.4561 1.6982 1 7.12903e-09 
5601 1 -49.4286 12.896 1.10331 1 2.21277e-09 
5635 1 -48.9251 15.0234 2.29333 1 2.8618e-09 
5637 1 -47.0793 13.4633 1.69844 1 1.49346e-09 
6294 1 -45.9046 15.307 0.50852 1 2.76788e-09 
6295 1 -44.7299 14.0306 2.29354 1 6.35602e-09 
6967 1 -41.7094 14.3142 0.508768 1 2.41519e-09 
7000 1 -40.5347 13.0377 2.29381 1 1.96508e-09 
6998 1 -39.3601 14.8814 1.10392 1 8.90166e-09 
7663 1 -37.5142 13.3213 0.509036 1 3.96695e-09 
7666 1 -35.1649 13.8885 1.10418 1 5.73246e-09 
8363 1 -32.8156 14.4557 1.6993 1 5.45228e-09 
8365 1 -30.9697 12.8956 1.10446 1 6.53184e-09 
8366 1 -30.4662 15.023 2.29444 1 5.9315e-09 
9025 1 -28.6203 13.4628 1.69959 1 5.4571e-09 
9026 1 -27.4456 15.3065 0.509679 1 5.15086e-09 
9068 1 -26.271 14.03 2.29473 1 1.25929e-08 
9728 1 -23.2503 14.3136 0.510015 1 4.34879e-08 
9733 1 -22.0756 13.0371 2.29513 1 7.64844e-08 
10378 1 -20.9009 14.8808 1.10532 1 1.62463e-07 
10382 1 -19.0549 13.321 0.510416 1 5.11382e-07 
10971 1 -16.7052 13.8884 1.10572 1 2.67928e-06 
10974 1 -14.3551 14.456 1.70105 1 1.43378e-05 
11423 1 -12.5105 12.8972 1.105 1 2.38376e-05 
11457 1 -12.004 15.0241 2.29662 1 8.29177e-05 
11459 1 -10.1616 13.4666 1.69978 1 0.00013727 
11783 1 -8.98626 15.3116 0.509504 1 0.000284614 
11784 1 -7.81297 14.0381 2.29442 1 0.00091055 
12008 1 -4.79286 14.3127 0.505718 1 0.0303951 
12041 1 -3.68338 13.0244 2.26639 1 0.232667 
12039 1 -2.38722 14.8501 1.04865 5 0.773503 
14544 2 -0.147717 13.2433 0.210688 5 10.5866 
14542 2 0.0931006 15.0674 1.9026 5 6.92231 
14598 2 2.3178 14.8155 0.766579 5 0.455577 
15350 2 4.36455 13.9958 1.93594 1 0.00647832 
15353 2 6.53893 13.8572 0.7462 1 0.000590092 
15407 2 8.38885 15.4154 1.34461 1 3.08599e-05 
16164 2 8.55461 13.0055 1.93893 1 6.13536e-05 
16219 2 10.5691 15.2739 0.154734 1 1.13021e-05 
16220 2 10.7364 12.8632 0.749778 1 7.12552e-06 
16221 2 10.4027 14.5645 2.53531 1 9.36445e-06 
16224 2 12.5832 14.4228 1.34532 1 2.58796e-06 
17054 2 14.5971 13.5716 2.53563 1 7.47978e-07 
17108 2 14.7646 14.2809 0.155596 1 8.05265e-07 
17110 2 16.7785 13.4298 1.34588 1 3.13848e-07 
17114 2 18.6247 14.9897 1.94121 1 8.89016e-08 
17940 2 18.9601 13.2878 0.156196 1 1.52376e-07 
17996 2 20.8061 14.8477 0.751458 1 6.78253e-08 
17998 2 22.8199 13.9965 1.94166 1 3.08301e-08 
18827 2 25.0015 13.8544 0.751914 1 1.65776e-08 
18832 2 27.0152 13.0032 1.94211 1 1.22373e-08 
18882 2 26.8474 15.4143 1.34709 1 1.28865e-08 
1537 4 -72.7541 17.2928 0.507883 5 30.976 
1561 4 -71.5795 16.0164 2.29285 5 12.3904 
2200 4 -70.4048 17.8601 1.10287 1 5.0036e-16 
2202 4 -68.5589 16.3 0.507883 1 6.9988e-16 
2862 4 -66.2096 16.8673 1.10287 1 5.0036e-16 
2904 4 -63.8602 17.4346 1.69786 1 6.75347e-09 
3566 1 -62.0143 15.8745 1.10289 1 4.05154e-09 
3569 1 -59.665 16.4418 1.69794 1 1.49047e-09 
4269 1 -57.3157 17.009 2.29299 1 3.5061e-09 
4271 1 -55.4697 15.4489 1.69807 1 1.88439e-09 
4927 1 -54.2951 17.2926 0.508129 1 1.7596e-09 
4928 1 -53.1204 16.0162 2.29312 1 4.19872e-09 
4930 1 -51.9457 17.8599 1.10319 1 4.10693e-09 
5600 1 -50.0998 16.2998 0.50829 1 2.11023e-09 
5633 1 -47.7505 16.8671 1.10341 1 1.4773e-09 
6292 1 -45.4012 17.4344 1.69853 1 2.71975e-09 
6297 1 -43.5553 15.8743 1.10364 1 6.5174e-09 
6996 1 -41.206 16.4415 1.69879 1 2.28779e-09 
6999 1 -38.8566 17.0088 2.29393 1 1.69481e-09 
7661 1 -37.0107 15.4486 1.69905 1 2.22268e-09 
7662 1 -35.8361 17.2923 0.509145 1 2.5839e-09 
7705 1 -34.6614 16.0159 2.29418 1 2.43118e-09 
8359 1 -33.4868 17.8596 1.10427 1 2.37964e-09 
8361 1 -31.6409 16.2994 0.509399 1 7.73526e-09 
9022 1 -29.2915 16.8667 1.10454 1 5.87862e-09 
9064 1 -26.9422 17.4339 1.69969 1 1.09212e-08 
9726 1 -25.0963 15.8737 1.10485 1 2.0561e-08 
9729 1 -22.7469 16.4409 1.70012 1 6.4894e-08 
10415 1 -20.3976 17.0079 2.29547 1 3.27992e-07 
10417 1 -18.5514 15.4479 1.70075 1 8.77507e-07 
10967 1 -17.3765 17.2915 0.511043 1 2.092e-06 
10968 1 -16.2017 16.0148 2.2963 1 4.35897e-06 
10970 1 -15.0266 17.8583 1.1067 1 1.05761e-05 
11422 1 -13.1794 16.3001 0.51138 1 4.06575e-05 
11455 1 -10.8269 16.8686 1.10734 1 0.000258797 
11781 1 -8.46943 17.4386 1.70376 1 0.0018458 
11786 1 -6.6377 15.8818 1.10102 1 0.00256809 
12037 1 -4.2922 16.438 1.6729 1 0.0502586 
12040 1 -2.01055 16.9613 2.26206 5 6.36866 
13941 2 0.12508 17.4788 1.42207 5 5.07679 
14597 2 2.20149 17.2603 0.156778 1 0.0676268 
14599 2 2.03534 16.5272 2.5462 1 0.085948 
14602 2 4.19386 16.3995 1.3456 1 0.00446579 
14655 2 6.04677 17.9655 1.94221 1 0.000922916 
15351 2 6.21071 15.5565 2.53552 1 0.000195549 
15405 2 6.37569 16.2676 0.154765 1 0.00039582 
15406 2 8.22378 17.8263 0.751051 1 8.32081e-05 
15411 2 10.2362 16.975 1.94098 1 2.03857e-05 
16275 2 12.4162 16.8335 0.750642 1 2.65773e-06 
16277 2 14.4298 15.9825 1.94091 1 7.06583e-07 
16281 2 16.2758 17.5425 2.53622 1 5.93477e-07 
17109 2 16.6109 15.8407 0.750978 1 2.21436e-07 
17164 2 18.4571 17.4006 1.34631 1 1.14739e-07 
17166 2 20.4708 16.5496 2.5365 1 5.58695e-08 
17167 2 20.6384 17.2587 0.156501 1 4.68207e-08 
17997 2 22.6522 16.4075 1.34669 1 1.72786e-08 
18002 2 24.6659 15.5564 2.53686 1 1.0542e-08 
18052 2 24.8337 16.2655 0.156907 1 1.63579e-08 
18053 2 24.4982 17.9674 1.94188 1 9.70689e-09 
18056 2 26.6796 17.8253 0.752092 1 1.4727e-08 
1558 4 -72.2507 19.4202 1.69786 5 18.5856 
2197 4 -69.9014 19.9875 2.29285 1 1.20008e-15 
2203 4 -68.0555 18.4274 1.69786 1 6.998e-16 
2861 4 -66.8808 20.2711 0.507883 1 4.9988e-16 
2902 4 -65.7062 18.9947 2.29285 1 9.00079e-16 
3562 1 -62.6856 19.2783 0.507893 1 3.57527e-09 
3563 1 -61.5109 18.0019 2.29288 1 2.28705e-09 
3565 1 -60.3362 19.8456 1.10292 1 1.01312e-08 
4231 1 -58.4903 18.2855 0.507993 1 1.99594e-09 
4265 1 -57.9869 20.4128 1.69797 1 3.71527e-09 
4267 1 -56.141 18.8527 1.10305 1 3.48048e-09 
4925 1 -53.7916 19.42 1.69811 1 4.3658e-09 
4972 1 -51.4423 19.9872 2.29321 1 4.49708e-09 
5629 1 -48.4217 20.2709 0.508391 1 1.21383e-09 
5631 1 -49.5964 18.4272 1.6983 1 9.65939e-10 
5634 1 -47.247 18.9944 2.29342 1 2.67338e-09 
6293 1 -44.2265 19.2781 0.508624 1 1.9691e-09 
6338 1 -43.0518 18.0016 2.29367 1 3.05573e-09 
6992 1 -41.8772 19.8453 1.10378 1 5.20424e-09 
6994 1 -40.0313 18.2852 0.50889 1 1.71059e-09 
6995 1 -39.5279 20.4126 1.6989 1 2.83584e-09 
7658 1 -37.682 18.8524 1.10402 1 1.44576e-09 
7701 1 -35.3327 19.4197 1.69915 1 1.35534e-09 
8356 1 -32.9833 19.9869 2.29427 1 2.10862e-09 
8362 1 -31.1374 18.4268 1.69941 1 3.61849e-09 
9021 1 -29.9627 20.2705 0.509511 1 6.82709e-09 
9062 1 -28.7881 18.994 2.29456 1 5.55923e-09 
9722 1 -25.7675 19.2775 0.509818 1 1.02904e-08 
9723 1 -24.5928 18.001 2.2949 1 1.24512e-08 
9725 1 -23.4182 19.8447 1.10505 1 2.04564e-08 
10377 1 -21.5722 18.2845 0.510304 1 1.48468e-07 
10411 1 -21.0689 20.4118 1.70032 1 8.44797e-08 
10413 1 -19.2229 18.8515 1.10571 1 6.8498e-07 
10965 1 -16.8736 19.4182 1.70118 1 3.28651e-06 
11012 1 -14.5245 19.9846 2.29671 1 1.72768e-05 
11453 1 -12.676 18.4247 1.70277 1 5.59339e-05 
11451 1 -11.5011 20.2676 0.5135 1 0.000111316 
11456 1 -10.3237 18.99 2.29958 1 0.000322815 
11782 1 -7.29208 19.2844 0.512841 1 0.00321292 
11827 1 -6.09774 18.0106 2.29726 1 0.0149154 
12033 1 -4.92426 19.8649 1.10448 1 0.0267134 
12035 1 -3.11512 18.3399 0.525181 5 1.26508 
12036 1 -2.49626 20.457 1.68628 5 1.66404 
13940 2 -0.205163 19.7544 0.800948 5 2.54612 
13944 2 1.85654 18.9937 1.95909 5 0.519371 
13996 2 3.68933 20.528 2.53251 1 0.0115429 
14653 2 4.03861 18.816 0.758131 1 0.00404197 
14654 2 5.87784 20.3783 1.3481 1 0.000740393 
14659 2 7.88601 19.5285 2.53811 1 0.000251892 
14709 2 8.05715 20.2364 0.156921 1 0.000139133 
15461 2 10.0684 19.3863 1.34701 1 3.6273e-05 
15463 2 12.0816 18.5353 2.53633 1 9.72818e-06 
15464 2 12.249 19.2444 0.156226 1 5.17975e-06 
16276 2 14.2624 18.3934 1.34613 1 1.9161e-06 
16331 2 16.4434 18.2516 0.156111 1 3.00645e-07 
16332 2 16.1081 19.9535 1.94131 1 8.01474e-07 
16335 2 18.2894 19.8116 0.751395 1 2.26319e-07 
17165 2 20.303 18.9606 1.94155 1 9.42079e-08 
17221 2 22.4844 18.8186 0.751721 1 2.19082e-08 
17222 2 22.1489 20.5205 2.53671 1 4.60484e-08 
17225 2 24.3304 20.3784 1.3469 1 1.31908e-08 
18054 2 26.3441 19.5272 2.53707 1 7.56327e-09 
18108 2 26.5119 20.2364 0.157113 1 7.28692e-09 
1555 4 -72.922 22.824 1.10287 5 37.1712 
2196 4 -71.0761 21.2639 0.507883 5 6.1952 
2199 4 -68.7267 21.8312 1.10287 1 1.00036e-15 
2898 4 -66.3774 22.3985 1.69786 1 1.1998e-15 
2900 4 -64.5315 20.8384 1.10287 1 2.54674e-09 
2901 4 -64.0281 22.9658 2.29285 1 8.98323e-09 
3560 1 -62.1822 21.4057 1.69789 1 1.92317e-09 
3609 1 -59.8328 21.9729 2.29292 1 2.53754e-09 
4263 1 -56.8122 22.2565 0.508038 1 9.92577e-10 
4268 1 -55.6375 20.9801 2.29305 1 2.15485e-09 
4922 1 -54.4629 22.8238 1.10311 1 3.66544e-09 
4926 1 -52.617 21.2637 0.508185 1 6.1822e-09 
5627 1 -50.2676 21.8309 1.10329 1 5.47871e-09 
5630 1 -47.9183 22.3982 1.6984 1 2.11809e-09 
6289 1 -46.0724 20.8381 1.1035 1 2.85211e-09 
6332 1 -45.569 22.9655 2.29352 1 3.06611e-09 
6334 1 -43.7231 21.4054 1.69865 1 5.57005e-10 
6989 1 -41.3738 21.9727 2.29379 1 1.57775e-09 
7657 1 -38.3532 22.2563 0.508995 1 3.20288e-09 
7697 1 -36.0039 22.8235 1.10412 1 5.09898e-09 
7699 1 -37.1785 20.9798 2.29403 1 3.2392e-09 
8355 1 -34.158 21.2634 0.509235 1 1.92185e-09 
8358 1 -31.8087 21.8306 1.10437 1 1.23231e-09 
9058 1 -29.4593 22.3978 1.69951 1 6.48992e-09 
9060 1 -27.6134 20.8377 1.10467 1 7.37397e-09 
9061 1 -27.11 22.9651 2.29468 1 3.9648e-09 
9720 1 -25.2641 21.4049 1.69985 1 7.25968e-09 
9769 1 -22.9148 21.9721 2.29505 1 1.80868e-08 
10409 1 -19.8943 22.2554 0.51051 1 1.55846e-07 
10414 1 -18.7196 20.9788 2.29565 1 3.02563e-07 
10962 1 -17.5451 22.8224 1.10583 1 7.11001e-07 
10966 1 -15.6991 21.2616 0.511456 1 7.76639e-06 
11449 1 -13.3505 21.8276 1.10699 1 4.31039e-05 
11452 1 -11.0031 22.3925 1.70235 1 0.000256709 
11778 1 -9.14954 20.832 1.11037 1 0.000637825 
11821 1 -8.65918 22.9556 2.29667 1 0.00151634 
11823 1 -6.79781 21.3937 1.70714 1 0.00409072 
12030 1 -4.44916 21.9468 2.30587 1 0.0777009 
12133 1 -0.985706 22.2021 0.20015 5 9.69639 
12146 1 -0.35277 21.4508 2.44571 5 8.92794 
13994 2 1.68175 21.3703 1.28997 5 0.597337 
13995 2 3.49208 22.9399 1.94649 1 0.0385688 
13997 2 3.87448 21.2288 0.154909 1 0.0109289 
14051 2 5.69673 22.794 0.753114 1 0.00301889 
14710 2 7.719 21.9406 1.93963 1 0.000334572 
14713 2 9.90071 21.7976 0.751343 1 3.63645e-05 
15462 2 11.9132 20.9466 1.9415 1 6.50421e-06 
15518 2 14.0947 20.8045 0.751356 1 2.45686e-06 
15519 2 13.7585 22.5067 2.53611 1 6.46162e-07 
15522 2 15.9402 22.3646 1.34631 1 5.7192e-07 
16333 2 17.9538 21.5136 2.53639 1 2.21163e-07 
16387 2 18.1217 22.2227 0.156452 1 2.90914e-07 
16389 2 20.1353 21.3716 1.34658 1 1.0935e-07 
16393 2 21.9811 22.9315 1.94172 1 4.45664e-08 
17220 2 22.3167 21.2296 0.156748 1 2.97336e-08 
17276 2 24.1626 22.7895 0.751918 1 1.58297e-08 
17278 2 26.1763 21.9383 1.94209 1 1.38077e-08 
1556 4 -72.4185 24.9513 2.29285 5 18.5856 
2194 4 -70.5726 23.3913 1.69786 1 1.1998e-15 
2195 4 -69.398 25.235 0.507883 1 9.9988e-16 
2242 4 -68.2233 23.9586 2.29285 1 1.00008e-15 
2896 4 -65.2027 24.2422 0.507883 1 1.57274e-09 
3557 1 -62.8534 24.8095 1.1029 1 4.54212e-09 
3561 1 -61.0075 23.2494 0.507931 1 1.24251e-09 
3605 1 -60.504 25.3767 1.69792 1 3.59259e-09 
4261 1 -58.6581 23.8166 1.10297 1 1.94032e-09 
4264 1 -56.3088 24.3839 1.69803 1 1.19712e-09 
4966 1 -53.9594 24.9511 2.2931 1 2.10748e-09 
4968 1 -52.1135 23.391 1.69819 1 6.70583e-09 
5623 1 -50.9389 25.2347 0.508253 1 4.66142e-09 
5624 1 -49.7642 23.9583 2.29328 1 1.42538e-09 
6288 1 -46.7436 24.2419 0.508483 1 3.59938e-09 
6330 1 -44.3943 24.8092 1.10362 1 2.64439e-09 
6986 1 -42.045 25.3765 1.69876 1 4.3696e-09 
6988 1 -42.5484 23.2491 0.508746 1 1.94876e-09 
6991 1 -40.1991 23.8164 1.10389 1 1.53692e-09 
7695 1 -37.8498 24.3836 1.69902 1 2.39043e-09 
7698 1 -35.5005 24.9508 2.29412 1 3.06374e-09 
8353 1 -33.6546 23.3907 1.69924 1 1.16112e-09 
8354 1 -32.4799 25.2344 0.509336 1 6.67122e-10 
8402 1 -31.3052 23.958 2.29437 1 2.33085e-09 
9056 1 -28.2847 24.2415 0.509619 1 3.70115e-09 
9717 1 -25.9353 24.8087 1.10479 1 6.47999e-09 
9721 1 -24.0894 23.2486 0.509979 1 1.17139e-08 
9765 1 -23.586 25.376 1.69994 1 1.93729e-08 
10407 1 -21.7401 23.8158 1.10518 1 4.21411e-08 
10410 1 -19.3909 24.383 1.70042 1 1.36392e-07 
11006 1 -17.0417 24.9503 2.29559 1 6.33497e-07 
11008 1 -15.1963 23.3893 1.70102 1 3.44216e-06 
11445 1 -14.0218 25.2328 0.511074 1 6.49976e-06 
11446 1 -12.848 23.9562 2.29593 1 2.02241e-05 
11777 1 -9.82874 24.2339 0.512116 1 0.000619835 
11819 1 -7.48614 24.7943 1.10542 1 0.00400762 
12027 1 -5.1524 25.3432 1.69244 1 0.0479126 
12029 1 -5.60342 23.2309 0.520823 1 0.0166 
12032 1 -3.18943 23.7526 1.11244 5 0.520306 
12145 1 -0.769062 24.1686 1.82476 5 7.8298 
13439 2 1.31304 25.4551 2.50145 5 4.83684 
13441 2 1.46744 23.7323 0.755177 5 0.599629 
13495 2 3.37088 25.335 1.31673 1 0.084625 
14050 2 5.53955 25.2046 0.148748 1 0.00495697 
14052 2 5.35928 24.4916 2.53681 1 0.00469092 
14055 2 7.54595 24.3515 1.34595 1 0.000398755 
14711 2 9.56269 23.5004 2.53548 1 2.72766e-05 
14765 2 9.73051 24.2091 0.156394 1 3.45099e-05 
14767 2 11.7449 23.3579 1.34607 1 3.36172e-06 
14771 2 13.5903 24.9179 1.94088 1 4.86677e-07 
15517 2 13.9267 23.2157 0.156314 1 1.74077e-06 
15573 2 15.7722 24.7758 0.751207 1 2.64158e-07 
15575 2 17.7858 23.9247 1.94133 1 1.15277e-07 
15579 2 19.6316 25.4847 2.53642 1 4.42261e-08 
16388 2 19.9674 23.7827 0.751571 1 1.03856e-07 
16443 2 21.8132 25.3426 1.34669 1 3.03112e-08 
16445 2 23.8269 24.4914 2.53685 1 1.38683e-08 
16446 2 23.9948 25.2005 0.15692 1 1.90359e-08 
17277 2 26.0085 24.3493 1.3471 1 1.34986e-08 
2191 4 -71.2439 26.7951 1.10287 5 6.1952 
2238 4 -68.8945 27.3624 1.69786 1 6.998e-16 
2891 4 -66.5452 27.9297 2.29285 1 5.0008e-16 
2894 4 -67.0486 25.8023 1.10287 1 1.20036e-15 
2897 4 -64.6993 26.3696 1.69786 1 3.37534e-09 
3556 4 -63.5246 28.2133 0.507883 1 1.58998e-08 
3603 1 -62.3499 26.9369 2.29287 1 3.11777e-09 
4257 1 -59.3294 27.2204 0.507965 1 1.86493e-09 
4258 1 -58.1547 25.944 2.29297 1 2.28726e-09 
4260 1 -56.98 27.7877 1.10302 1 2.39516e-09 
4921 1 -55.1341 26.2276 0.508083 1 4.04341e-09 
4964 1 -52.7848 26.7948 1.10316 1 3.25722e-09 
5621 1 -50.4354 27.3621 1.69825 1 2.26602e-09 
5626 1 -48.5895 25.802 1.10337 1 1.21945e-09 
5671 1 -48.0861 27.9294 2.29337 1 2.05185e-09 
6328 1 -46.2402 26.3693 1.69849 1 2.05669e-09 
6326 1 -45.0655 28.213 0.50859 1 1.44254e-09 
6331 1 -43.8909 26.9366 2.29363 1 8.13308e-10 
6987 1 -40.8703 27.2202 0.508861 1 4.45786e-09 
7036 1 -39.6957 25.9437 2.29391 1 8.58363e-09 
7691 1 -38.521 27.7874 1.104 1 9.52347e-09 
7693 1 -36.6751 26.2273 0.509097 1 1.78192e-09 
8350 1 -34.3258 26.7945 1.10421 1 4.8377e-09 
8398 1 -31.9765 27.3618 1.69935 1 4.96409e-09 
9051 1 -29.6272 27.929 2.2945 1 9.6816e-10 
9054 1 -30.1306 25.8017 1.10448 1 4.02961e-09 
9057 1 -27.7813 26.3689 1.69964 1 5.46211e-09 
9716 1 -26.6066 28.2126 0.509746 1 9.86308e-09 
9763 1 -25.4319 26.9361 2.29478 1 1.27212e-08 
10403 1 -22.4114 27.2197 0.510049 1 3.54807e-08 
10404 1 -21.2367 25.9433 2.29511 1 6.18601e-08 
10406 1 -20.0621 27.787 1.10522 1 1.1888e-07 
10961 1 -18.2163 26.2267 0.510533 1 2.78775e-07 
11004 1 -15.8671 26.794 1.10564 1 1.39966e-06 
11443 1 -13.5179 27.3614 1.70053 1 9.4507e-06 
11448 1 -11.6736 25.7995 1.10564 1 3.73262e-05 