ITEM: TIMESTEP
0
ITEM: NUMBER OF ATOMS
18160
ITEM: BOX BOUNDS ss pp pp
-73.4257 117.655
0 31.4838
0 32.9266
ITEM: ATOMS id type x y z c_cna c_csd 
421 4 -73.2153 2.22156 1.38734 5 30.976 
422 4 -71.5324 0.647372 2.3281 5 6.1952 
729 4 -69.0081 2.22156 0.446582 1 8.98999e-16 
753 4 -67.3252 0.647372 1.38734 1 1.7009e-15 
754 4 -65.0112 1.43447 1.85772 1 4.53298e-09 
1138 1 -63.118 0.647343 0.446564 1 4.26911e-09 
1175 1 -62.6972 2.22153 2.32806 1 6.9031e-09 
1177 1 -60.804 1.43438 0.916907 1 2.47853e-09 
1601 1 -58.49 2.22138 1.38726 1 3.17513e-09 
1643 1 -56.8071 0.647139 2.32798 1 1.52088e-09 
2074 1 -54.2828 2.22125 0.446419 1 2.06527e-09 
2075 1 -52.5999 0.647012 1.38716 1 3.20723e-09 
2115 1 -50.2859 1.43402 1.85752 1 5.62295e-09 
2546 1 -47.9719 2.221 2.32793 1 1.70123e-09 
2549 1 -48.3927 0.646828 0.4464 1 9.91254e-10 
2550 1 -46.0787 1.43383 0.916806 1 3.79257e-09 
3021 1 -43.7647 2.22085 1.38723 1 3.91254e-09 
3022 1 -42.0818 0.646635 2.32802 1 1.68847e-09 
3455 1 -39.5574 2.22079 0.446523 1 1.51622e-09 
3495 1 -37.8745 0.646571 1.3873 1 3.0847e-09 
3496 1 -35.5605 1.43363 1.85773 1 1.44391e-09 
3929 1 -33.6672 0.646494 0.44663 1 3.68835e-09 
3967 1 -33.2465 2.22068 2.32816 1 2.64922e-09 
3969 1 -31.3532 1.43352 0.917077 1 6.6407e-09 
4401 1 -29.0392 2.22052 1.38757 1 2.29414e-09 
4443 1 -27.3563 0.646258 2.32843 1 6.43435e-09 
4874 1 -24.8319 2.22037 0.446995 1 9.25509e-09 
4875 1 -23.149 0.646144 1.38777 1 1.09525e-08 
4915 1 -20.835 1.43316 1.85813 1 5.25199e-08 
5344 1 -18.5211 2.22013 2.32847 1 4.16065e-07 
5347 1 -18.9417 0.646025 0.446989 1 5.25559e-08 
5348 1 -16.6276 1.433 0.917276 1 5.30986e-07 
5797 1 -14.3137 2.22 1.38767 1 2.97512e-06 
5798 1 -12.6304 0.645481 2.32779 1 4.07059e-05 
6167 1 -10.1059 2.22127 0.449241 1 0.000348361 
6207 1 -8.4159 0.64828 1.38943 1 0.00205063 
6208 1 -6.10057 1.4487 1.8714 1 0.0226343 
6511 1 -4.25713 0.658329 0.452124 1 0.0640876 
6549 1 -3.72532 2.21489 2.38808 5 4.47566 
6551 1 -1.98011 1.47519 0.917342 5 7.55586 
7207 2 0.126027 0.571283 1.83173 5 5.6058 
7210 2 1.90269 2.20089 0.923128 1 0.0709594 
7484 2 4.24981 1.42812 0.447599 1 0.00640975 
7485 2 6.15604 2.21742 1.8549 1 0.000672698 
7807 2 8.47492 1.43106 1.38736 1 7.31621e-05 
7846 2 10.7902 0.643593 0.917227 1 1.09142e-05 
8229 2 12.6842 1.43016 2.32795 1 5.55876e-06 
8232 2 14.9979 0.642919 1.85745 1 7.18596e-07 
8268 2 16.6807 2.21704 0.916643 1 7.76127e-08 
8689 2 18.9947 1.42976 0.446148 1 7.43747e-09 
8694 2 20.888 2.2167 1.85718 1 8.87896e-09 
419 4 -72.5842 4.58285 0.916962 5 18.5856 
424 4 -70.9013 3.00866 1.85772 1 1.1e-15 
749 4 -68.5873 3.79576 2.3281 1 1.3998e-15 
751 4 -66.6941 3.00866 0.916962 1 3e-16 
1135 4 -64.3801 3.79576 1.38734 1 9.04458e-09 
1173 1 -62.0662 4.5828 1.85769 1 3.4199e-09 
1600 1 -60.1729 3.79564 0.446531 1 2.17439e-09 
1602 1 -57.8589 4.58265 0.916873 1 2.25157e-09 
1641 1 -56.176 3.00841 1.8576 1 1.51569e-09 
2071 1 -53.8621 3.79543 2.32792 1 2.48977e-09 
2076 1 -51.9688 3.00827 0.916761 1 3.81048e-09 
2545 1 -49.6548 3.79527 1.38715 1 5.19607e-09 
2548 1 -47.3409 4.58227 1.85756 1 1.64154e-09 
2982 1 -45.4476 3.7951 0.446442 1 2.18472e-09 
3019 1 -43.1336 4.58213 0.916863 1 4.88247e-09 
3024 1 -41.4507 3.00792 1.85765 1 1.79836e-09 
3491 1 -39.1367 3.79498 2.32805 1 1.00055e-09 
3493 1 -37.2434 3.00785 0.916929 1 3.0818e-09 
3926 1 -34.9294 3.7949 1.38736 1 1.77395e-09 
3965 1 -32.6154 4.58194 1.85781 1 1.55717e-09 
4400 1 -30.7221 3.79479 0.446735 1 5.88955e-09 
4402 1 -28.4082 4.58178 0.917243 1 5.79302e-09 
4441 1 -26.7252 3.00752 1.85809 1 1.01802e-08 
4871 1 -24.4112 3.79455 2.32853 1 7.25372e-09 
4876 1 -22.5179 3.00741 0.917387 1 1.426e-08 
5343 1 -20.204 3.79442 1.38775 1 1.03828e-07 
5346 1 -17.8901 4.58143 1.85814 1 7.14572e-07 
5758 1 -15.9965 3.79437 0.447063 1 1.15281e-06 
5795 1 -13.6825 4.58168 0.917622 1 1.10896e-05 
5800 1 -12.0006 3.00742 1.85864 1 2.43923e-05 
6203 1 -9.68749 3.79522 2.3297 1 0.000208424 
6205 1 -7.79086 3.01238 0.923087 1 0.00322319 
6508 1 -5.45234 3.79199 1.39916 1 0.036099 
6547 1 -3.01901 4.50813 1.83191 5 5.60994 
6763 1 -0.387999 3.08429 1.39273 5 4.34314 
7208 2 1.36514 4.5926 0.452484 1 0.0643789 
7446 2 3.83704 3.00525 2.31954 1 0.00580649 
7486 2 5.52372 4.5818 1.38938 1 0.00203754 
7489 2 7.8404 3.79202 0.916788 1 0.000384302 
7810 2 9.73812 4.57848 2.32748 1 4.06502e-05 
7847 2 10.1575 3.00483 0.446593 1 5.19775e-05 
7848 2 12.0524 3.79146 1.85735 1 5.02973e-06 
8230 2 14.3666 3.00431 1.38707 1 5.84548e-07 
8269 2 16.0495 4.57836 0.446242 1 5.6774e-08 
8691 2 18.574 3.00397 2.32769 1 3.44635e-08 
8692 2 20.2569 4.57803 1.38683 1 9.45475e-09 
725 4 -71.9531 6.94414 0.446582 5 12.3904 
726 4 -70.2702 5.36995 1.38734 1 1.0997e-15 
727 4 -69.6391 7.73124 0.916962 1 1.0998e-15 
747 4 -67.9563 6.15704 1.85772 1 4e-16 
1134 4 -66.063 5.36995 0.446582 1 1.399e-15 
1131 4 -65.6423 6.94414 2.3281 1 7.7489e-10 
1136 4 -63.749 6.15704 0.916962 1 1.76189e-08 
1596 1 -61.4351 6.94407 1.3873 1 2.71078e-09 
1597 1 -59.7522 5.36982 2.32804 1 1.32295e-09 
1599 1 -59.1211 7.73108 1.85764 1 1.41196e-09 
2035 1 -57.2278 6.94392 0.446473 1 1.31007e-09 
2070 1 -55.545 5.36968 1.3872 1 6.93715e-10 
2068 1 -54.9139 7.73095 0.916808 1 1.84332e-09 
2073 1 -53.231 6.1567 1.85754 1 1.8938e-09 
2508 1 -51.3377 5.36952 0.446385 1 2.33798e-09 
2541 1 -50.917 6.94371 2.32791 1 4.67032e-09 
2543 1 -49.0238 6.15653 0.91678 1 2.23606e-09 
2979 1 -46.7098 6.94353 1.38719 1 2.2255e-09 
3017 1 -45.0269 5.36928 2.32798 1 3.26467e-09 
3015 1 -44.3958 7.73054 1.85761 1 3.16225e-09 
3451 1 -42.5025 6.9434 0.446492 1 4.52801e-09 
3452 1 -40.8196 5.3692 1.38727 1 9.38487e-10 
3453 1 -40.1885 7.73048 0.916891 1 1.78461e-09 
3489 1 -38.5056 6.15625 1.85767 1 2.12228e-09 
3922 1 -36.1916 6.94332 2.32811 1 5.69533e-09 
3925 1 -36.6123 5.36913 0.446575 1 8.94256e-10 
3927 1 -34.2984 6.15618 0.917007 1 4.93884e-09 
4396 1 -31.9843 6.94322 1.38744 1 6.24341e-09 
4397 1 -30.3014 5.36897 2.32827 1 9.63736e-09 
4399 1 -29.6703 7.73022 1.85791 1 6.95045e-09 
4835 1 -27.777 6.94304 0.446893 1 4.93464e-09 
4868 1 -25.463 7.73005 0.917371 1 1.46586e-08 
4870 1 -26.0941 5.36879 1.38774 1 1.62701e-08 
4873 1 -23.7801 6.15582 1.85815 1 5.689e-09 
5306 1 -21.8868 5.36868 0.447013 1 9.05342e-09 
5339 1 -21.4662 6.94286 2.32853 1 3.03597e-08 
5341 1 -19.5729 6.15573 0.917404 1 7.95576e-08 
5755 1 -17.2588 6.94276 1.38774 1 6.1885e-07 
5791 1 -14.9446 7.72968 1.85785 1 5.04964e-06 
5793 1 -15.5764 5.36844 2.3285 1 5.85116e-06 
6163 1 -13.0497 6.94285 0.446945 1 5.27213e-05 
6164 1 -11.3672 5.36887 1.38759 1 7.30839e-05 
6165 1 -10.7326 7.72976 0.916975 1 0.000386249 
6201 1 -9.04834 6.15495 1.85503 1 0.000665016 
6504 1 -6.72931 6.94253 2.31956 1 0.00576778 
6507 1 -7.14222 5.36545 0.447687 1 0.00635527 
6509 1 -4.79516 6.13803 0.923081 1 0.0703679 
6760 1 -2.50355 7.02071 1.39203 5 4.34134 
6762 1 -0.912529 5.40956 0.917977 5 7.55686 
7211 2 0.833039 6.14891 2.3882 5 4.47752 
7212 2 2.55993 7.72581 1.39918 1 0.0362194 
7214 2 3.20851 5.38257 1.87152 1 0.0226603 
7244 2 4.89863 6.946 0.923029 1 0.00323359 
7487 2 7.21373 6.15458 0.449111 1 0.000348926 
7490 2 6.79524 7.72858 2.32956 1 0.000210263 
7493 2 9.10833 6.9405 1.85839 1 2.5176e-05 
7849 2 11.4214 6.15281 1.38723 1 2.97496e-06 
7850 2 13.1043 7.72702 0.446484 1 1.14087e-06 
7852 2 13.7354 5.36556 0.916644 1 5.84514e-07 
8234 2 15.6289 6.15251 2.32774 1 4.08172e-07 
8270 2 17.9429 5.3653 1.85731 1 5.74207e-08 
8271 2 17.3118 7.72662 1.38696 1 9.28843e-08 
8274 2 19.6258 6.93937 0.916483 1 1.31595e-08 
8696 2 21.519 7.72631 2.32752 1 4.20657e-09 
8729 2 21.9398 6.15208 0.445979 1 2.74945e-09 
721 4 -73.2153 10.0925 1.38734 5 30.976 
722 4 -71.5324 8.51833 2.3281 5 6.1952 
1105 4 -69.0081 10.0925 0.446582 1 9.98799e-16 
1130 4 -67.3252 8.51833 1.38734 1 1.7003e-15 
1133 4 -65.0112 9.30543 1.85772 1 4.54539e-09 
1563 1 -63.118 8.5183 0.446564 1 4.23268e-09 
1592 1 -62.6972 10.0925 2.32806 1 6.7158e-09 
1594 1 -60.804 9.30534 0.916907 1 2.42429e-09 
2032 1 -58.49 10.0923 1.38726 1 3.12956e-09 
2066 1 -56.8071 8.5181 2.32798 1 1.5737e-09 
2504 1 -54.2828 10.0922 0.446419 1 2.09152e-09 
2505 1 -52.5999 8.51797 1.38716 1 3.23366e-09 
2539 1 -50.2859 9.30498 1.85752 1 5.63537e-09 
2975 1 -47.9719 10.092 2.32793 1 1.6944e-09 
2978 1 -48.3927 8.51779 0.4464 1 1.00883e-09 
2980 1 -46.0787 9.30479 0.916806 1 3.64165e-09 
3447 1 -43.7647 10.0918 1.38723 1 4.05256e-09 
3448 1 -42.0818 8.51759 2.32802 1 1.68911e-09 
3890 1 -39.5574 10.0917 0.446523 1 1.53469e-09 
3921 1 -37.8745 8.51753 1.3873 1 3.06611e-09 
3924 1 -35.5605 9.30459 1.85773 1 1.39113e-09 
4363 1 -33.6672 8.51745 0.446629 1 3.70277e-09 
4392 1 -33.2465 10.0916 2.32816 1 2.64703e-09 
4394 1 -31.3532 9.30448 0.917077 1 6.69466e-09 
4832 1 -29.0392 10.0915 1.38757 1 2.28488e-09 
4866 1 -27.3563 8.51722 2.32843 1 6.454e-09 
5302 1 -24.8319 10.0913 0.446995 1 9.22019e-09 
5303 1 -23.149 8.5171 1.38777 1 1.08774e-08 
5337 1 -20.835 9.30412 1.85813 1 5.27609e-08 
5751 1 -18.5211 10.0911 2.32847 1 4.16086e-07 
5754 1 -18.9417 8.51698 0.446989 1 5.24682e-08 
5756 1 -16.6276 9.30395 0.917276 1 5.31259e-07 
6159 1 -14.3137 10.091 1.38767 1 2.97586e-06 
6160 1 -12.6304 8.51644 2.32779 1 4.07117e-05 
6472 1 -10.1059 10.0922 0.449241 1 0.000348351 
6503 1 -8.4159 8.51924 1.38943 1 0.00205042 
6506 1 -6.10057 9.31965 1.8714 1 0.0226342 
6727 1 -4.25714 8.52929 0.452128 1 0.0640963 
6756 1 -3.72532 10.0859 2.38808 5 4.47567 
6758 1 -1.9801 9.34616 0.917348 5 7.55582 
7062 2 0.126027 8.44224 1.83172 5 5.6058 
7065 2 1.90269 10.0719 0.923128 1 0.0709571 
7245 2 4.24981 9.29908 0.447599 1 0.00640953 
7246 2 6.15604 10.0884 1.8549 1 0.000672678 
7491 2 8.47492 9.30202 1.38736 1 7.31651e-05 
7521 2 10.7902 8.51455 0.917227 1 1.09149e-05 
7853 2 12.6842 9.30111 2.32795 1 5.55971e-06 
7856 2 14.9979 8.51388 1.85745 1 7.18703e-07 
7882 2 16.6807 10.088 0.916643 1 7.74463e-08 
8272 2 18.9947 9.30072 0.446148 1 7.37964e-09 
8278 2 20.888 10.0877 1.85718 1 8.93211e-09 
719 4 -72.5842 12.4538 0.916962 5 18.5856 
724 4 -70.9013 10.8796 1.85772 1 9.00201e-16 
1126 4 -68.5873 11.6667 2.3281 1 1.1e-15 
1128 4 -66.6941 10.8796 0.916962 1 1.00201e-16 
1560 4 -64.3801 11.6667 1.38734 1 9.0396e-09 
1590 1 -62.0662 12.4538 1.85769 1 3.45968e-09 
2031 1 -60.1729 11.6666 0.446531 1 2.19752e-09 
2033 1 -57.8589 12.4536 0.916873 1 2.34428e-09 
2064 1 -56.176 10.8794 1.8576 1 1.4975e-09 
2501 1 -53.8621 11.6664 2.32793 1 2.50083e-09 
2506 1 -51.9688 10.8792 0.916761 1 3.71402e-09 
2974 1 -49.6548 11.6662 1.38715 1 5.14859e-09 
2977 1 -47.3409 12.4532 1.85756 1 1.64328e-09 
3418 1 -45.4476 11.6661 0.446442 1 2.15604e-09 
3445 1 -43.1336 12.4531 0.916863 1 4.82228e-09 
3450 1 -41.4507 10.8789 1.85765 1 1.78066e-09 
3917 1 -39.1367 11.6659 2.32805 1 9.73543e-10 
3919 1 -37.2434 10.8788 0.916929 1 2.96442e-09 
4360 1 -34.9294 11.6659 1.38736 1 1.87518e-09 
4390 1 -32.6154 12.4529 1.85781 1 1.55847e-09 
4831 1 -30.7221 11.6657 0.446735 1 5.86481e-09 
4833 1 -28.4082 12.4527 0.917243 1 5.78487e-09 
4864 1 -26.7252 10.8785 1.85809 1 1.02594e-08 
5299 1 -24.4112 11.6655 2.32853 1 7.17967e-09 
5304 1 -22.5179 10.8784 0.917387 1 1.4248e-08 
5750 1 -20.204 11.6654 1.38775 1 1.03792e-07 
5753 1 -17.8901 12.4524 1.85814 1 7.14433e-07 
6130 1 -15.9965 11.6653 0.447063 1 1.15213e-06 
6157 1 -13.6825 12.4526 0.917622 1 1.10895e-05 
6162 1 -12.0006 10.8784 1.85864 1 2.43924e-05 
6499 1 -9.68749 11.6662 2.3297 1 0.00020838 
6501 1 -7.79086 10.8833 0.923087 1 0.00322313 
6724 1 -5.45234 11.663 1.39916 1 0.0360983 
6754 1 -3.01901 12.3791 1.83191 5 5.60996 
6886 1 -0.388002 10.9552 1.39273 5 4.34312 
7063 2 1.36514 12.4636 0.452484 1 0.0643792 
7216 2 3.83704 10.8762 2.31955 1 0.00580644 
7247 2 5.52372 12.4528 1.38938 1 0.00203731 
7250 2 7.8404 11.663 0.916788 1 0.000384313 
7495 2 9.73812 12.4494 2.32748 1 4.06462e-05 
7522 2 10.1575 10.8758 0.446593 1 5.19716e-05 
7523 2 12.0524 11.6624 1.85735 1 5.0283e-06 
7854 2 14.3666 10.8753 1.38707 1 5.84441e-07 
7883 2 16.0495 12.4493 0.446242 1 5.68805e-08 
8275 2 18.574 10.8749 2.32769 1 3.45979e-08 
8276 2 20.2569 12.449 1.38683 1 9.48006e-09 
1101 4 -71.9531 14.8151 0.446582 5 12.3904 
1102 4 -70.2702 13.2409 1.38734 1 1.3997e-15 
1103 4 -69.6391 15.6022 0.916962 1 7.99998e-16 
1124 4 -67.9563 14.028 1.85772 1 7e-16 
1559 4 -66.063 13.2409 0.446582 1 1.699e-15 
1556 4 -65.6423 14.8151 2.3281 1 7.65257e-10 
1561 4 -63.749 14.028 0.916962 1 1.76416e-08 
2027 1 -61.4351 14.815 1.3873 1 2.6098e-09 
2028 1 -59.7522 13.2408 2.32804 1 1.28873e-09 
2030 1 -59.1211 15.602 1.85764 1 1.38265e-09 
2475 1 -57.2278 14.8149 0.446474 1 1.32484e-09 
2500 1 -55.545 13.2406 1.3872 1 7.3727e-10 
2498 1 -54.9139 15.6019 0.916808 1 1.78924e-09 
2503 1 -53.231 14.0277 1.85754 1 1.9164e-09 
2947 1 -51.3377 13.2405 0.446385 1 2.31009e-09 
2970 1 -50.917 14.8147 2.32791 1 4.65044e-09 
2972 1 -49.0238 14.0275 0.91678 1 2.25334e-09 
3415 1 -46.7098 14.8145 1.38719 1 2.21824e-09 
3443 1 -45.0269 13.2402 2.32798 1 3.24812e-09 
3441 1 -44.3958 15.6015 1.8576 1 3.20609e-09 
3886 1 -42.5025 14.8144 0.446492 1 4.44547e-09 
3887 1 -40.8196 13.2402 1.38727 1 9.53233e-10 
3888 1 -40.1885 15.6014 0.916891 1 1.72447e-09 
3915 1 -38.5056 14.0272 1.85767 1 2.08668e-09 
4356 1 -36.1916 14.8143 2.32811 1 5.717e-09 
4359 1 -36.6123 13.2401 0.446574 1 8.6078e-10 
4361 1 -34.2984 14.0271 0.917007 1 5.14743e-09 
4827 1 -31.9843 14.8142 1.38744 1 6.34213e-09 
4828 1 -30.3014 13.2399 2.32827 1 9.57411e-09 
4830 1 -29.6703 15.6012 1.85791 1 7.04803e-09 
5273 1 -27.777 14.814 0.446893 1 5.02559e-09 
5296 1 -25.463 15.601 0.917371 1 1.46046e-08 
5298 1 -26.0941 13.2398 1.38774 1 1.63586e-08 
5301 1 -23.7801 14.0268 1.85815 1 5.60955e-09 
5723 1 -21.8868 13.2396 0.447013 1 9.05251e-09 
5746 1 -21.4662 14.8138 2.32853 1 3.02929e-08 
5748 1 -19.5729 14.0267 0.917403 1 7.946e-08 
6127 1 -17.2588 14.8137 1.38774 1 6.18604e-07 
6153 1 -14.9446 15.6006 1.85785 1 5.04913e-06 
6155 1 -15.5764 13.2394 2.3285 1 5.84989e-06 
6468 1 -13.0497 14.8138 0.446944 1 5.27287e-05 
6469 1 -11.3672 13.2398 1.38759 1 7.30819e-05 
6470 1 -10.7326 15.6007 0.916976 1 0.000386235 
6497 1 -9.04834 14.0259 1.85503 1 0.000664993 
6720 1 -6.72931 14.8135 2.31956 1 0.005768 
6723 1 -7.14222 13.2364 0.447687 1 0.00635521 
6725 1 -4.79516 14.009 0.923079 1 0.0703699 
6883 1 -2.50355 14.8917 1.39203 5 4.34135 
6885 1 -0.912526 13.2805 0.917977 5 7.55687 
7066 2 0.833041 14.0199 2.3882 5 4.47747 
7067 2 2.55994 15.5968 1.39919 1 0.0362195 
7069 2 3.20851 13.2535 1.87152 1 0.0226602 
7089 2 4.89863 14.817 0.923029 1 0.00323357 
7248 2 7.21373 14.0255 0.449111 1 0.000348919 
7251 2 6.79525 15.5995 2.32956 1 0.00021029 
7254 2 9.10833 14.8115 1.85839 1 2.51794e-05 
7524 2 11.4214 14.0238 1.38723 1 2.97397e-06 
7525 2 13.1043 15.598 0.446484 1 1.13997e-06 
7527 2 13.7354 13.2365 0.916644 1 5.84572e-07 
7858 2 15.6289 14.0235 2.32774 1 4.08659e-07 
7884 2 17.9429 13.2363 1.85731 1 5.73941e-08 
7885 2 17.3118 15.5976 1.38696 1 9.29501e-08 
7888 2 19.6258 14.8103 0.916483 1 1.31223e-08 
8280 2 21.519 15.5973 2.32752 1 4.21781e-09 
8303 2 21.9398 14.023 0.445979 1 2.76512e-09 
1097 4 -73.2153 17.9635 1.38734 5 30.976 
1098 4 -71.5324 16.3893 2.3281 5 6.1952 
1534 4 -69.0081 17.9635 0.446582 1 1.199e-15 
1555 4 -67.3252 16.3893 1.38734 1 1.6997e-15 
1558 4 -65.0112 17.1764 1.85772 1 4.52011e-09 
2004 1 -63.118 16.3893 0.446564 1 4.25545e-09 
2023 1 -62.6972 17.9634 2.32806 1 6.93308e-09 
2025 1 -60.804 17.1763 0.916907 1 2.52503e-09 
2472 1 -58.49 17.9633 1.38726 1 3.20562e-09 
2496 1 -56.8071 16.3891 2.32798 1 1.49783e-09 
2943 1 -54.2828 17.9632 0.446419 1 2.06329e-09 
2944 1 -52.5999 16.3889 1.38716 1 3.22442e-09 
2968 1 -50.2859 17.1759 1.85752 1 5.57444e-09 
3411 1 -47.9719 17.9629 2.32793 1 1.70951e-09 
3414 1 -48.3927 16.3887 0.446401 1 9.55315e-10 
3416 1 -46.0787 17.1757 0.916806 1 3.79606e-09 
3882 1 -43.7647 17.9628 1.38723 1 3.93109e-09 
3883 1 -42.0818 16.3886 2.32802 1 1.71047e-09 
4334 1 -39.5574 17.9627 0.446523 1 1.51623e-09 
4355 1 -37.8745 16.3885 1.3873 1 3.12661e-09 
4358 1 -35.5605 17.1755 1.85773 1 1.44053e-09 
4804 1 -33.6672 16.3884 0.44663 1 3.67656e-09 
4823 1 -33.2465 17.9626 2.32816 1 2.66104e-09 
4825 1 -31.3532 17.1754 0.917077 1 6.68494e-09 
5270 1 -29.0392 17.9624 1.38757 1 2.27935e-09 
5294 1 -27.3563 16.3882 2.32843 1 6.40521e-09 
5719 1 -24.8319 17.9623 0.446995 1 9.29267e-09 
5720 1 -23.149 16.3881 1.38777 1 1.08944e-08 
5744 1 -20.835 17.1751 1.85813 1 5.24259e-08 
6123 1 -18.5211 17.962 2.32847 1 4.15774e-07 
6126 1 -18.9417 16.3879 0.446989 1 5.25964e-08 
6128 1 -16.6276 17.1749 0.917276 1 5.30926e-07 
6464 1 -14.3137 17.9619 1.38767 1 2.97501e-06 
6465 1 -12.6304 16.3874 2.32779 1 4.07071e-05 
6698 1 -10.1059 17.9632 0.449241 1 0.000348374 
6719 1 -8.4159 16.3902 1.38943 1 0.00205064 
6722 1 -6.10057 17.1906 1.8714 1 0.0226342 
6860 1 -4.25713 16.4002 0.452125 1 0.0640893 
6879 1 -3.72532 17.9568 2.38808 5 4.47566 
6881 1 -1.9801 17.2171 0.917342 5 7.55586 
6989 2 0.126027 16.3132 1.83173 5 5.60579 
6992 2 1.90269 17.9428 0.923128 1 0.0709582 
7090 2 4.24981 17.17 0.447599 1 0.00640992 
7091 2 6.15604 17.9593 1.8549 1 0.000672714 
7252 2 8.47492 17.173 1.38736 1 7.316e-05 
7272 2 10.7902 16.3855 0.917227 1 1.09143e-05 
7528 2 12.6842 17.1721 2.32795 1 5.5584e-06 
7531 2 14.9979 16.3848 1.85745 1 7.18384e-07 
7547 2 16.6807 17.959 0.916643 1 7.7559e-08 
7886 2 18.9947 17.1717 0.446148 1 7.40768e-09 
7892 2 20.888 17.9586 1.85718 1 8.8932e-09 
1095 4 -72.5842 20.3248 0.916962 5 18.5856 
1100 4 -70.9013 18.7506 1.85772 1 8.00001e-16 
1551 4 -68.5873 19.5377 2.3281 1 1.0998e-15 
1553 4 -66.6941 18.7506 0.916962 1 4.50351e-22 
2001 4 -64.3801 19.5377 1.38734 1 9.03248e-09 
2021 1 -62.0662 20.3247 1.85769 1 3.36392e-09 
2471 1 -60.1729 19.5376 0.446531 1 2.18232e-09 
2473 1 -57.8589 20.3246 0.916873 1 2.25449e-09 
2494 1 -56.176 18.7503 1.8576 1 1.49892e-09 
2940 1 -53.8621 19.5374 2.32792 1 2.50938e-09 
2945 1 -51.9688 18.7502 0.916761 1 3.80029e-09 
3410 1 -49.6548 19.5372 1.38715 1 5.23009e-09 
3413 1 -47.3409 20.3242 1.85756 1 1.65824e-09 
3863 1 -45.4476 19.537 0.446442 1 2.1912e-09 
3880 1 -43.1336 20.3241 0.916863 1 4.88379e-09 
3885 1 -41.4507 18.7498 1.85765 1 1.79368e-09 
4351 1 -39.1367 19.5369 2.32805 1 9.9534e-10 
4353 1 -37.2434 18.7498 0.916928 1 3.03462e-09 
4801 1 -34.9294 19.5368 1.38736 1 1.75549e-09 
4821 1 -32.6154 20.3239 1.85781 1 1.57023e-09 
5269 1 -30.7221 19.5367 0.446735 1 5.85892e-09 
5271 1 -28.4082 20.3237 0.917243 1 5.74477e-09 
5292 1 -26.7252 18.7494 1.85809 1 1.01296e-08 
5716 1 -24.4112 19.5365 2.32853 1 7.28418e-09 
5721 1 -22.5179 18.7493 0.917387 1 1.42504e-08 
6122 1 -20.204 19.5363 1.38774 1 1.03866e-07 
6125 1 -17.8901 20.3233 1.85814 1 7.14502e-07 
6445 1 -15.9965 19.5363 0.447063 1 1.15274e-06 
6462 1 -13.6825 20.3236 0.917622 1 1.10891e-05 
6467 1 -12.0006 18.7493 1.85864 1 2.43954e-05 
6715 1 -9.68749 19.5371 2.3297 1 0.000208396 
6717 1 -7.79086 18.7543 0.923088 1 0.00322321 
6857 1 -5.45234 19.5339 1.39916 1 0.0360991 
6877 1 -3.01901 20.25 1.83191 5 5.60994 
6944 1 -0.388 18.8262 1.39273 5 4.34313 
6990 2 1.36514 20.3345 0.452485 1 0.0643787 
7071 2 3.83704 18.7472 2.31954 1 0.0058065 
7092 2 5.52372 20.3237 1.38938 1 0.00203759 
7095 2 7.8404 19.5339 0.916789 1 0.000384294 
7256 2 9.73812 20.3204 2.32748 1 4.06473e-05 
7273 2 10.1575 18.7468 0.446593 1 5.1981e-05 
7274 2 12.0524 19.5334 1.85735 1 5.02975e-06 
7529 2 14.3666 18.7462 1.38707 1 5.84423e-07 
7548 2 16.0495 20.3203 0.446242 1 5.67562e-08 
7889 2 18.574 18.7459 2.32769 1 3.44253e-08 
7890 2 20.2569 20.32 1.38683 1 9.47732e-09 
1530 4 -71.9531 22.6861 0.446582 5 12.3904 
1531 4 -70.2702 21.1119 1.38734 1 1.3997e-15 
1532 4 -69.6391 23.4732 0.916962 1 7.99998e-16 
1549 4 -67.9563 21.899 1.85772 1 7e-16 
2000 4 -66.063 21.1119 0.446582 1 1.699e-15 
1997 4 -65.6423 22.6861 2.3281 1 7.70321e-10 
2002 4 -63.749 21.899 0.916962 1 1.7648e-08 
2467 1 -61.4351 22.686 1.3873 1 2.67337e-09 
2468 1 -59.7522 21.1117 2.32804 1 1.33925e-09 
2470 1 -59.1211 23.473 1.85764 1 1.39953e-09 
2924 1 -57.2278 22.6858 0.446473 1 1.30671e-09 
2939 1 -55.545 21.1116 1.3872 1 6.87841e-10 
2937 1 -54.9139 23.4729 0.916808 1 1.83552e-09 
2942 1 -53.231 21.8986 1.85754 1 1.88136e-09 
3393 1 -51.3377 21.1114 0.446385 1 2.3526e-09 
3406 1 -50.917 22.6856 2.3279 1 4.64391e-09 
3408 1 -49.0238 21.8984 0.91678 1 2.23569e-09 
3860 1 -46.7098 22.6854 1.38719 1 2.22603e-09 
3878 1 -45.0269 21.1112 2.32798 1 3.23911e-09 
3876 1 -44.3958 23.4725 1.85761 1 3.16199e-09 
4330 1 -42.5025 22.6853 0.446492 1 4.51085e-09 
4331 1 -40.8196 21.1111 1.38727 1 9.44223e-10 
4332 1 -40.1885 23.4724 0.916891 1 1.77483e-09 
4349 1 -38.5056 21.8982 1.85767 1 2.11844e-09 
4797 1 -36.1916 22.6852 2.32811 1 5.59498e-09 
4800 1 -36.6123 21.1111 0.446575 1 8.73674e-10 
4802 1 -34.2984 21.8981 0.917007 1 4.92517e-09 
5265 1 -31.9843 22.6851 1.38744 1 6.21823e-09 
5266 1 -30.3014 21.1109 2.32827 1 9.5926e-09 
5268 1 -29.6703 23.4721 1.85791 1 7.00349e-09 
5700 1 -27.777 22.685 0.446893 1 4.94996e-09 
5713 1 -25.463 23.472 0.917371 1 1.46831e-08 
5715 1 -26.0941 21.1107 1.38774 1 1.62795e-08 
5718 1 -23.7801 21.8977 1.85815 1 5.67828e-09 
6105 1 -21.8868 21.1106 0.447013 1 9.06238e-09 
6118 1 -21.4662 22.6848 2.32853 1 3.04058e-08 
6120 1 -19.5729 21.8976 0.917403 1 7.96289e-08 
6442 1 -17.2588 22.6847 1.38774 1 6.1908e-07 
6458 1 -14.9446 23.4716 1.85785 1 5.05068e-06 
6460 1 -15.5764 21.1104 2.3285 1 5.85105e-06 
6694 1 -13.0497 22.6848 0.446944 1 5.27219e-05 
6695 1 -11.3672 21.1108 1.38759 1 7.30851e-05 
6696 1 -10.7326 23.4717 0.916975 1 0.000386243 
6713 1 -9.04834 21.8969 1.85503 1 0.000665 
6853 1 -6.72931 22.6844 2.31956 1 0.00576802 
6856 1 -7.14222 21.1074 0.447687 1 0.00635513 
6858 1 -4.79516 21.8799 0.92308 1 0.070369 
6941 1 -2.50355 22.7626 1.39203 5 4.34134 
6943 1 -0.912527 21.1515 0.917978 5 7.55687 
6993 2 0.833039 21.8908 2.3882 5 4.47759 
6994 2 2.55994 23.4677 1.39918 1 0.0362187 
6996 2 3.20851 21.1245 1.87152 1 0.0226598 
7006 2 4.89863 22.6879 0.923029 1 0.00323363 
7093 2 7.21373 21.8965 0.449111 1 0.000348928 
7096 2 6.79524 23.4705 2.32956 1 0.000210258 
7099 2 9.10833 22.6824 1.85839 1 2.51749e-05 
7275 2 11.4214 21.8947 1.38723 1 2.9749e-06 
7276 2 13.1043 23.4689 0.446484 1 1.14114e-06 
7278 2 13.7354 21.1075 0.916644 1 5.84639e-07 
7533 2 15.6289 21.8944 2.32774 1 4.08306e-07 
7549 2 17.9429 21.1072 1.85731 1 5.74002e-08 
7550 2 17.3118 23.4685 1.38696 1 9.28741e-08 
7553 2 19.6258 22.6813 0.916483 1 1.31386e-08 
7894 2 21.519 23.4682 2.32752 1 4.20491e-09 
7907 2 21.9398 21.894 0.445979 1 2.75158e-09 
1526 4 -73.2153 25.8344 1.38734 5 30.976 
1527 4 -71.5324 24.2602 2.3281 5 6.1952 
1985 4 -69.0081 25.8344 0.446582 1 1.199e-15 
1996 4 -67.3252 24.2602 1.38734 1 1.6997e-15 
1999 4 -65.0112 25.0473 1.85772 1 4.52866e-09 
2454 1 -63.118 24.2602 0.446564 1 4.27591e-09 
2463 1 -62.6972 25.8344 2.32806 1 6.77471e-09 
2465 1 -60.804 25.0473 0.916907 1 2.37939e-09 
2921 1 -58.49 25.8343 1.38726 1 3.10844e-09 
2935 1 -56.8071 24.26 2.32798 1 1.54148e-09 
3389 1 -54.2828 25.8341 0.446419 1 2.10633e-09 
3390 1 -52.5999 24.2599 1.38716 1 3.21429e-09 
3404 1 -50.2859 25.0469 1.85752 1 5.59941e-09 
3856 1 -47.9719 25.8339 2.32793 1 1.67736e-09 
3859 1 -48.3927 24.2597 0.4464 1 1.01839e-09 
3861 1 -46.0787 25.0467 0.916806 1 3.64663e-09 
4326 1 -43.7647 25.8337 1.38723 1 4.02412e-09 
4327 1 -42.0818 24.2595 2.32802 1 1.68803e-09 
4785 1 -39.5574 25.8337 0.446522 1 1.52849e-09 
4796 1 -37.8745 24.2594 1.3873 1 3.07835e-09 
4799 1 -35.5605 25.0465 1.85773 1 1.40452e-09 
5252 1 -33.6672 24.2594 0.446629 1 3.68036e-09 
5261 1 -33.2465 25.8336 2.32816 1 2.62693e-09 
5263 1 -31.3532 25.0464 0.917077 1 6.74456e-09 
5697 1 -29.0392 25.8334 1.38757 1 2.28884e-09 
5711 1 -27.3563 24.2591 2.32843 1 6.48618e-09 
6101 1 -24.8319 25.8332 0.446995 1 9.24938e-09 
6102 1 -23.149 24.259 1.38777 1 1.09315e-08 
6116 1 -20.835 25.046 1.85813 1 5.28108e-08 
6438 1 -18.5211 25.833 2.32847 1 4.16222e-07 
6441 1 -18.9417 24.2589 0.446989 1 5.2439e-08 
6443 1 -16.6276 25.0459 0.917276 1 5.31225e-07 
6690 1 -14.3137 25.8329 1.38767 1 2.97636e-06 
6691 1 -12.6304 24.2584 2.32779 1 4.07131e-05 
6841 1 -10.1059 25.8341 0.449241 1 0.000348343 
6852 1 -8.4159 24.2612 1.38943 1 0.00205048 
6855 1 -6.10057 25.0616 1.8714 1 0.0226343 
6928 1 -4.25713 24.2712 0.452128 1 0.0640919 
6937 1 -3.72532 25.8278 2.38808 5 4.47567 
6939 1 -1.9801 25.0881 0.917346 5 7.55586 
6963 2 0.126027 24.1842 1.83173 5 5.60579 
6966 2 1.90269 25.8138 0.923128 1 0.0709577 
7007 2 4.24981 25.041 0.447599 1 0.0064097 
7008 2 6.15604 25.8303 1.8549 1 0.0006727 
7097 2 8.47492 25.0439 1.38736 1 7.31653e-05 
7107 2 10.7902 24.2565 0.917227 1 1.09148e-05 
7279 2 12.6842 25.043 2.32795 1 5.55972e-06 
7282 2 14.9979 24.2558 1.85745 1 7.18792e-07 
7288 2 16.6807 25.8299 0.916643 1 7.74554e-08 
7551 2 18.9947 25.0426 0.446148 1 7.36719e-09 
7557 2 20.888 25.8296 1.85718 1 8.94497e-09 
1524 4 -72.5842 28.1957 0.916962 5 18.5856 
1529 4 -70.9013 26.6215 1.85772 1 8.00001e-16 
1992 4 -68.5873 27.4086 2.3281 1 1.0998e-15 
1994 4 -66.6941 26.6215 0.916962 1 4.50351e-22 
2451 4 -64.3801 27.4086 1.38734 1 9.02018e-09 
2461 1 -62.0662 28.1957 1.85769 1 3.53544e-09 
2920 1 -60.1729 27.4085 0.446531 1 2.24389e-09 
2922 1 -57.8589 28.1955 0.916873 1 2.36693e-09 
2933 1 -56.176 26.6213 1.8576 1 1.50505e-09 
3386 1 -53.8621 27.4083 2.32793 1 2.45831e-09 
3391 1 -51.9688 26.6211 0.916761 1 3.73093e-09 
3855 1 -49.6548 27.4081 1.38714 1 5.16911e-09 
3858 1 -47.3409 28.1951 1.85756 1 1.62971e-09 
4317 1 -45.4476 27.408 0.446442 1 2.16796e-09 
4324 1 -43.1336 28.195 0.916863 1 4.79799e-09 
4329 1 -41.4507 26.6208 1.85765 1 1.79129e-09 
4792 1 -39.1367 27.4079 2.32805 1 9.96594e-10 
4794 1 -37.2434 26.6207 0.916928 1 3.00387e-09 
5249 1 -34.9294 27.4078 1.38736 1 1.8874e-09 
5259 1 -32.6154 28.1948 1.85781 1 1.55152e-09 
5696 1 -30.7221 27.4077 0.446735 1 5.87061e-09 
5698 1 -28.4082 28.1947 0.917243 1 5.73709e-09 
5709 1 -26.7252 26.6204 1.85809 1 1.02094e-08 
6098 1 -24.4112 27.4074 2.32853 1 7.24731e-09 
6103 1 -22.5179 26.6203 0.917387 1 1.42964e-08 
6437 1 -20.204 27.4073 1.38775 1 1.03833e-07 
6440 1 -17.8901 28.1943 1.85814 1 7.14755e-07 
6681 1 -15.9965 27.4073 0.447062 1 1.15219e-06 
6688 1 -13.6825 28.1946 0.917622 1 1.10898e-05 
6693 1 -12.0006 26.6203 1.85864 1 2.43915e-05 
6848 1 -9.68749 27.4081 2.3297 1 0.000208392 
6850 1 -7.79086 26.6253 0.923087 1 0.00322313 
6925 1 -5.45234 27.4049 1.39916 1 0.0360984 
6935 1 -3.01901 28.121 1.83191 5 5.60996 
6959 1 -0.388001 26.6972 1.39273 5 4.34314 
6964 2 1.36514 28.2055 0.452484 1 0.0643764 
6998 2 3.83704 26.6181 2.31955 1 0.00580646 
7009 2 5.52372 28.1947 1.38938 1 0.00203736 
7012 2 7.8404 27.4049 0.916788 1 0.000384317 
7101 2 9.73812 28.1914 2.32748 1 4.06476e-05 
7108 2 10.1575 26.6177 0.446593 1 5.19722e-05 
7109 2 12.0524 27.4043 1.85735 1 5.02862e-06 
7280 2 14.3666 26.6172 1.38707 1 5.84554e-07 
7289 2 16.0495 28.1912 0.446242 1 5.67693e-08 
7554 2 18.574 26.6168 2.32769 1 3.46524e-08 
7555 2 20.2569 28.1909 1.38683 1 9.49083e-09 
1981 4 -71.9531 30.557 0.446582 5 12.3904 
1982 4 -70.2702 28.9828 1.38734 1 1.3997e-15 
1983 4 -69.6391 31.3441 0.916962 1 1.1012e-15 
1990 4 -67.9563 29.7699 1.85772 1 6.00001e-16 
2450 4 -66.063 28.9828 0.446582 1 1.699e-15 
2448 4 -65.6423 30.557 2.3281 1 7.66287e-10 
2452 4 -63.749 29.7699 0.916962 1 1.76358e-08 
2916 1 -61.4351 30.5569 1.3873 1 2.59856e-09 
2917 1 -59.7522 28.9827 2.32804 1 1.30384e-09 
2919 1 -59.1211 31.344 1.85764 1 1.38139e-09 
3381 1 -57.2278 30.5568 0.446473 1 1.32679e-09 
3385 1 -55.545 28.9826 1.3872 1 7.67297e-10 
3384 1 -54.9139 31.3438 0.916808 1 1.77798e-09 
3388 1 -53.231 29.7696 1.85754 1 1.88343e-09 
3848 1 -51.3377 28.9824 0.446385 1 2.30494e-09 
3851 1 -50.917 30.5566 2.3279 1 4.63381e-09 
3853 1 -49.0238 29.7694 0.91678 1 2.24632e-09 
4315 1 -46.7098 30.5564 1.38719 1 2.20342e-09 
4322 1 -45.0269 28.9822 2.32798 1 3.22463e-09 
4321 1 -44.3958 31.3434 1.8576 1 3.16872e-09 
4781 1 -42.5025 30.5563 0.446492 1 4.42259e-09 
4782 1 -40.8196 28.9821 1.38727 1 9.72352e-10 
4783 1 -40.1885 31.3434 0.916891 1 1.70996e-09 
4790 1 -38.5056 29.7691 1.85767 1 2.10429e-09 
5246 1 -36.1916 30.5562 2.32811 1 5.69018e-09 
5248 1 -36.6123 28.982 0.446574 1 8.49205e-10 
5250 1 -34.2984 29.7691 0.917007 1 5.09498e-09 
5692 1 -31.9843 30.5561 1.38744 1 6.31898e-09 
5693 1 -30.3014 28.9819 2.32827 1 9.59368e-09 
5695 1 -29.6703 31.3431 1.85791 1 7.08794e-09 
6093 1 -27.777 30.5559 0.446893 1 5.01893e-09 
6096 1 -25.463 31.3429 0.917371 1 1.45712e-08 
6097 1 -26.0941 28.9817 1.38774 1 1.62949e-08 
6100 1 -23.7801 29.7687 1.85815 1 5.64543e-09 
6430 1 -21.8868 28.9816 0.447013 1 9.04888e-09 
6433 1 -21.4662 30.5557 2.32853 1 3.03247e-08 
6435 1 -19.5729 29.7686 0.917404 1 7.95041e-08 
6679 1 -17.2588 30.5556 1.38774 1 6.18678e-07 
6685 1 -14.9446 31.3426 1.85785 1 5.04857e-06 
6686 1 -15.5764 28.9813 2.3285 1 5.85177e-06 
6837 1 -13.0497 30.5557 0.446944 1 5.2725e-05 
6838 1 -11.3672 28.9817 1.38759 1 7.30805e-05 
6839 1 -10.7326 31.3426 0.916975 1 0.000386244 
6846 1 -9.04834 29.7678 1.85503 1 0.000665006 
6922 1 -6.72931 30.5554 2.31956 1 0.00576787 
6924 1 -7.14222 28.9783 0.447687 1 0.00635513 
6926 1 -4.79516 29.7509 0.923079 1 0.0703701 
6956 1 -2.50355 30.6336 1.39203 5 4.34137 
6958 1 -0.912524 29.0224 0.917977 5 7.55689 
6967 2 0.833041 29.7618 2.3882 5 4.47746 
6969 2 3.20851 28.9954 1.87152 1 0.0226605 
7444 2 2.55994 31.3387 1.39919 1 0.0362197 
6970 2 4.89863 30.5589 0.923029 1 0.00323358 
7010 2 7.21373 29.7675 0.449111 1 0.000348919 
7013 2 9.10833 30.5534 1.85839 1 2.51768e-05 
7806 2 6.79525 31.3415 2.32956 1 0.000210317 
7110 2 11.4214 29.7657 1.38723 1 2.97449e-06 
7112 2 13.7354 28.9784 0.916644 1 5.84545e-07 
8228 2 13.1043 31.3399 0.446484 1 1.13997e-06 
7284 2 15.6289 29.7654 2.32774 1 4.08788e-07 
7290 2 17.9429 28.9782 1.85731 1 5.74197e-08 
8688 2 17.3118 31.3395 1.38696 1 9.30129e-08 
7291 2 19.6258 30.5522 0.916483 1 1.31616e-08 