ITEM: TIMESTEP
0
ITEM: NUMBER OF ATOMS
39188
ITEM: BOX BOUNDS ss pp pp
-61.6266 114.69
0 49.0279
0 49.0279
ITEM: ATOMS id type x y z c_cna c_csd 
71 4 -61.6265 1.17718 1.85547 5 18.5856 
531 4 -59.8665 0.54538 0.212783 1 1.80681e-15 
533 4 -58.1065 1.17718 1.85547 1 1.90306e-15 
1307 4 -56.3465 0.54538 0.212783 1 1.80681e-15 
1309 4 -54.5865 1.17718 1.85547 1 1.90306e-15 
2083 4 -52.8265 0.54538 0.212783 1 5.43442e-08 
2085 1 -51.0666 1.17716 1.85548 1 1.71115e-09 
2859 1 -49.3067 0.545347 0.212815 1 1.00662e-09 
2861 1 -47.5469 1.17714 1.85552 1 7.40783e-10 
3635 1 -45.787 0.545306 0.212837 1 1.32989e-09 
3637 1 -44.0272 1.17709 1.85555 1 6.90516e-10 
4411 1 -42.2673 0.545273 0.212879 1 6.86152e-10 
4413 1 -40.5075 1.17705 1.85559 1 1.2915e-09 
5187 1 -38.7476 0.545222 0.212928 1 8.55152e-10 
5189 1 -36.9878 1.17701 1.85565 1 3.79352e-10 
5963 1 -35.2279 0.545177 0.212986 1 3.20384e-10 
5965 1 -33.468 1.17696 1.8557 1 4.6406e-10 
6739 1 -31.7082 0.545115 0.213043 1 5.50485e-10 
6741 1 -29.9483 1.17689 1.85576 1 4.05309e-10 
7515 1 -28.1885 0.545057 0.213113 1 9.30843e-10 
7517 1 -26.4286 1.17682 1.85583 1 9.30629e-10 
8291 1 -24.6688 0.544986 0.213168 1 1.13627e-09 
8293 1 -22.9089 1.17676 1.85589 1 1.25468e-09 
9067 1 -21.1491 0.544938 0.213227 1 2.02128e-09 
9069 1 -19.3892 1.17673 1.85594 1 3.77857e-09 
9843 1 -17.6294 0.544918 0.213286 1 5.04874e-09 
9845 1 -15.8695 1.17671 1.85598 1 2.1185e-08 
10619 1 -14.1096 0.544977 0.213377 1 1.02476e-07 
10621 1 -12.3497 1.17673 1.85609 1 2.18396e-07 
11395 1 -10.5897 0.545167 0.213508 1 2.25767e-06 
11397 1 -8.82973 1.17638 1.85676 1 1.6482e-05 
12171 1 -7.07137 0.543347 0.214208 1 0.000426017 
12173 1 -5.31327 1.17773 1.85441 1 0.0057771 
12947 1 -3.52111 0.567485 0.233699 1 0.0842812 
12949 1 -1.64403 1.14853 1.93379 5 5.72047 
13581 2 0.334487 1.63568 0.629153 5 7.18169 
13970 2 2.09646 1.01446 2.25621 1 0.0524003 
13971 2 3.81178 1.64678 0.627808 1 0.00632521 
14746 2 5.56932 1.01401 2.2722 1 0.000595152 
14747 2 7.33331 1.64495 0.629871 1 3.70744e-05 
15522 2 9.09307 1.01313 2.27241 1 4.89374e-06 
15523 2 10.8526 1.64477 0.629659 1 2.24205e-07 
16298 2 12.6125 1.01297 2.27236 1 6.06387e-08 
16299 2 14.3723 1.64473 0.629674 1 1.41571e-08 
17074 2 16.1322 1.01294 2.2724 1 3.83324e-09 
17075 2 17.8921 1.64473 0.629732 1 1.5811e-09 
17850 2 19.6519 1.0129 2.27246 1 3.89881e-10 
17851 2 21.4118 1.64467 0.62981 1 4.75167e-10 
18626 2 23.1716 1.01284 2.27254 1 7.02308e-10 
18627 2 24.9315 1.64459 0.629897 1 2.46891e-10 
101 4 -61.6265 4.46256 0.591865 5 18.5856 
532 4 -59.8665 2.81987 1.22367 1 6.98303e-16 
592 4 -59.8665 5.09436 2.23455 1 2.99881e-16 
591 4 -58.1065 4.46256 0.591865 1 5.95688e-16 
1308 4 -56.3465 2.81987 1.22367 1 6.98303e-16 
1367 4 -54.5865 4.46256 0.591865 1 5.95688e-16 
1368 4 -56.3465 5.09436 2.23455 1 2.99881e-16 
2084 4 -52.8265 2.81987 1.22367 1 5.41816e-08 
2144 4 -52.8265 5.09436 2.23455 1 5.45797e-08 
2143 1 -51.0666 4.46255 0.591878 1 1.19213e-09 
2860 1 -49.3067 2.81984 1.22369 1 1.27583e-09 
2920 1 -49.3067 5.09434 2.23458 1 9.86621e-10 
2919 1 -47.5469 4.46251 0.591913 1 8.5659e-10 
3636 1 -45.787 2.8198 1.22374 1 7.06203e-10 
3695 1 -44.0272 4.46247 0.591955 1 6.01268e-10 
3696 1 -45.787 5.09429 2.23462 1 9.46807e-10 
4412 1 -42.2673 2.81976 1.22377 1 5.73409e-10 
4472 1 -42.2673 5.09426 2.23466 1 7.43822e-10 
4471 1 -40.5075 4.46243 0.591988 1 7.84518e-10 
5188 1 -38.7476 2.81972 1.22381 1 6.40782e-10 
5248 1 -38.7476 5.09421 2.2347 1 7.43631e-10 
5247 1 -36.9877 4.46238 0.592039 1 2.79071e-10 
5964 1 -35.2279 2.81967 1.22387 1 5.22357e-10 
6023 1 -33.468 4.46232 0.592096 1 4.66427e-10 
6024 1 -35.2279 5.09416 2.23475 1 8.4598e-10 
6740 1 -31.7082 2.81961 1.22393 1 2.8656e-10 
6800 1 -31.7082 5.0941 2.23482 1 4.52361e-10 
6799 1 -29.9483 4.46227 0.592162 1 3.01168e-10 
7516 1 -28.1885 2.81955 1.22399 1 6.68366e-10 
7576 1 -28.1885 5.09404 2.23488 1 3.75854e-10 
7575 1 -26.4286 4.4622 0.592225 1 6.83035e-10 
8292 1 -24.6688 2.81948 1.22406 1 1.38831e-09 
8351 1 -22.9089 4.46215 0.59229 1 5.2242e-10 
8352 1 -24.6688 5.09398 2.23495 1 6.08065e-10 
9068 1 -21.1491 2.81943 1.22412 1 2.55457e-09 
9128 1 -21.1491 5.09393 2.23501 1 9.64977e-10 
9127 1 -19.3893 4.46211 0.592352 1 5.10193e-09 
9844 1 -17.6294 2.81942 1.22417 1 8.21111e-09 
9904 1 -17.6294 5.0939 2.23504 1 1.71773e-08 
9903 1 -15.8695 4.46211 0.592398 1 3.12917e-08 
10620 1 -14.1096 2.81941 1.2242 1 8.09467e-08 
10680 1 -14.1095 5.09383 2.23505 1 8.39429e-08 
10679 1 -12.3495 4.46202 0.59242 1 3.43705e-07 
11396 1 -10.5895 2.81923 1.22437 1 1.43301e-06 
11456 1 -10.5899 5.09359 2.23515 1 6.01814e-06 
11455 1 -8.82967 4.46183 0.592741 1 4.18058e-05 
12172 1 -7.07179 2.81983 1.22405 1 0.000428744 
12231 1 -5.30684 4.45933 0.589093 1 0.00641923 
12232 1 -7.06498 5.09259 2.23499 1 0.000716285 
12948 1 -3.51241 2.79078 1.2176 1 0.0868538 
13008 1 -3.59575 5.09167 2.22065 1 0.0546693 
13007 1 -1.8281 4.47776 0.594352 5 6.77046 
13584 2 0.133551 4.96273 1.96447 5 5.88225 
13974 2 2.01879 3.31708 1.26058 1 0.0816035 
13977 2 3.81877 4.9306 1.89278 1 0.0057756 
14750 2 5.57609 3.28743 1.26132 1 0.000443935 
14753 2 7.33348 4.93083 1.89392 1 1.83667e-05 
15526 2 9.09289 3.28766 1.26165 1 1.42676e-06 
15529 2 10.8528 4.93024 1.89333 1 1.61329e-07 
16302 2 12.6125 3.28746 1.26148 1 3.69405e-08 
16305 2 14.3724 4.93017 1.89327 1 1.26968e-08 
17078 2 16.1322 3.28743 1.2615 1 6.7453e-09 
17081 2 17.892 4.93012 1.89331 1 3.41788e-09 
17854 2 19.6519 3.2874 1.26156 1 1.23826e-09 
17857 2 21.4118 4.93006 1.8934 1 1.0574e-09 
18630 2 23.1716 3.28733 1.26165 1 6.53944e-10 
18633 2 24.9315 4.92998 1.89349 1 4.56376e-10 
103 4 -61.6265 6.73705 1.60275 5 18.5856 
595 4 -58.1065 6.73705 1.60275 1 6.99823e-16 
1371 4 -54.5865 6.73705 1.60275 1 6.99823e-16 
2147 1 -51.0666 6.73704 1.60276 1 1.02366e-09 
2923 1 -47.5469 6.73701 1.60279 1 2.04218e-09 
3699 1 -44.0272 6.73697 1.60284 1 1.06328e-09 
4475 1 -40.5075 6.73692 1.60287 1 8.12821e-10 
5251 1 -36.9877 6.73687 1.60292 1 8.63381e-10 
6027 1 -33.468 6.73681 1.60298 1 6.24202e-10 
6803 1 -29.9483 6.73676 1.60305 1 2.77066e-10 
7579 1 -26.4286 6.7367 1.60311 1 7.96695e-10 
8355 1 -22.9089 6.73665 1.60318 1 6.79595e-10 
9131 1 -19.3893 6.7366 1.60324 1 7.12812e-09 
9907 1 -15.8695 6.73654 1.60328 1 2.52078e-08 
10683 1 -12.3495 6.73643 1.60332 1 4.48669e-07 
11459 1 -8.82953 6.7357 1.60419 1 6.13011e-05 
12235 1 -5.31064 6.74226 1.59768 1 0.00593385 
13011 1 -1.79036 6.72683 1.64986 5 4.68046 
13590 2 0.333183 7.2353 0.865399 5 5.98727 
13973 2 2.02969 5.54304 0.27409 1 0.0786948 
13990 2 2.05828 6.56823 2.5191 1 0.0529524 
13989 2 3.81184 7.20401 0.889336 1 0.00620818 
14749 2 5.5755 5.56431 0.251275 1 0.000459432 
14766 2 5.57461 6.5744 2.52646 1 0.000261908 
14765 2 7.33381 7.2053 0.881554 1 7.64124e-05 
15525 2 9.09313 5.56195 0.250617 1 2.66893e-06 
15541 2 10.8529 7.20473 0.882313 1 8.31022e-07 
15542 2 9.09307 6.5731 2.52508 1 3.04875e-06 
16301 2 12.6126 5.56197 0.250544 1 9.24026e-08 
16318 2 12.6126 6.57295 2.52505 1 6.25154e-08 
16317 2 14.3723 7.2047 0.882313 1 2.94392e-08 
17077 2 16.1322 5.56195 0.250574 1 1.03233e-08 
17094 2 16.1322 6.57286 2.52507 1 6.3548e-09 
17093 2 17.892 7.20463 0.882402 1 3.01831e-09 
17853 2 19.6519 5.5619 0.250658 1 1.22181e-09 
17870 2 19.6519 6.57279 2.52515 1 1.32173e-09 
17869 2 21.4118 7.20455 0.882501 1 4.30263e-10 
18629 2 23.1716 5.56182 0.250761 1 6.75728e-10 
18646 2 23.1716 6.57271 2.52524 1 7.40095e-10 
18645 2 24.9315 7.20447 0.882607 1 4.45777e-10 
132 4 -61.6265 10.0224 0.339144 5 18.5856 
650 4 -59.8665 8.37974 0.970947 1 2.19233e-15 
653 4 -58.1065 10.0224 0.339144 1 1.79293e-15 
1426 4 -56.3465 8.37974 0.970947 1 2.19233e-15 
1429 4 -54.5865 10.0224 0.339144 1 1.79293e-15 
2202 4 -52.8265 8.37974 0.970947 1 5.40653e-08 
2205 1 -51.0666 10.0224 0.339157 1 1.65037e-09 
2978 1 -49.3067 8.3797 0.970972 1 1.74691e-09 
2981 1 -47.5469 10.0224 0.339195 1 7.62393e-10 
3754 1 -45.787 8.37968 0.97102 1 2.39304e-09 
3757 1 -44.0272 10.0224 0.33923 1 2.77048e-09 
4530 1 -42.2673 8.37964 0.971045 1 1.95007e-09 
4533 1 -40.5075 10.0223 0.339269 1 8.80803e-10 
5306 1 -38.7476 8.37958 0.971098 1 3.125e-10 
5309 1 -36.9877 10.0222 0.339323 1 5.2954e-10 
6082 1 -35.2279 8.37952 0.971154 1 7.56866e-10 
6085 1 -33.468 10.0222 0.339385 1 3.07286e-10 
6858 1 -31.7082 8.37948 0.971216 1 5.84264e-10 
6861 1 -29.9483 10.0221 0.339442 1 5.89423e-10 
7634 1 -28.1885 8.37942 0.971279 1 3.48803e-10 
7637 1 -26.4286 10.0221 0.339504 1 1.32425e-10 
8410 1 -24.6688 8.37937 0.971341 1 6.6553e-10 
8413 1 -22.9089 10.022 0.339573 1 1.48548e-09 
9186 1 -21.1491 8.37932 0.971417 1 1.91746e-09 
9189 1 -19.3892 10.022 0.339662 1 8.42826e-09 
9962 1 -17.6294 8.37924 0.971488 1 1.59817e-08 
9965 1 -15.8694 10.0219 0.33978 1 1.47465e-08 
10738 1 -14.1095 8.37912 0.971576 1 8.28255e-08 
10741 1 -12.3495 10.0217 0.339958 1 8.73572e-07 
11514 1 -10.5894 8.37896 0.971847 1 4.25968e-06 
11517 1 -8.8297 10.0226 0.341297 1 7.7875e-05 
12290 1 -7.07186 8.38101 0.973087 1 0.000497622 
12293 1 -5.31024 10.019 0.334679 1 0.00575059 
13066 1 -3.53475 8.36739 0.949746 1 0.0674747 
13069 1 -1.82217 10.0641 0.358837 5 5.04964 
13988 2 2.04012 8.87141 1.5261 1 0.068177 
14764 2 5.57591 8.84757 1.51093 1 0.000489254 
15540 2 9.09307 8.84764 1.51378 1 3.82962e-06 
16316 2 12.6125 8.8475 1.51401 1 9.647e-08 
17092 2 16.1322 8.84737 1.51414 1 7.07665e-09 
17868 2 19.6519 8.84728 1.51424 1 1.09515e-09 
18644 2 23.1716 8.8472 1.51435 1 8.20246e-10 
161 4 -61.6265 12.2969 1.35003 5 18.5856 
651 4 -59.8665 10.6542 1.98183 1 2.99825e-16 
711 4 -58.1065 12.2969 1.35003 1 4.99943e-16 
1427 4 -56.3465 10.6542 1.98183 1 2.99825e-16 
1487 4 -54.5865 12.2969 1.35003 1 4.99943e-16 
2203 4 -52.8265 10.6542 1.98183 1 5.51896e-08 
2263 1 -51.0666 12.2969 1.35005 1 2.33181e-09 
2979 1 -49.3067 10.6542 1.98187 1 7.44464e-10 
3039 1 -47.5469 12.2969 1.35008 1 1.34158e-09 
3755 1 -45.787 10.6542 1.9819 1 1.27485e-09 
3815 1 -44.0272 12.2968 1.35012 1 1.03932e-09 
4531 1 -42.2673 10.6541 1.98194 1 1.55465e-09 
4591 1 -40.5075 12.2968 1.35016 1 3.42351e-10 
5307 1 -38.7476 10.6541 1.98198 1 2.4843e-10 
5367 1 -36.9877 12.2967 1.35021 1 6.59908e-10 
6083 1 -35.2279 10.654 1.98204 1 9.37194e-10 
6143 1 -33.468 12.2967 1.35027 1 2.88775e-10 
6859 1 -31.7082 10.654 1.9821 1 1.75928e-10 
6919 1 -29.9483 12.2966 1.35033 1 1.00339e-09 
7635 1 -28.1885 10.6539 1.98216 1 2.77935e-10 
7695 1 -26.4286 12.2966 1.35039 1 2.09972e-10 
8411 1 -24.6688 10.6539 1.98222 1 5.23459e-10 
8471 1 -22.9089 12.2965 1.35045 1 1.7369e-09 
9187 1 -21.1491 10.6538 1.98229 1 2.90441e-09 
9247 1 -19.3892 12.2965 1.35053 1 4.91294e-09 
9963 1 -17.6293 10.6537 1.98237 1 1.47784e-08 
10023 1 -15.8694 12.2963 1.35065 1 3.09226e-08 
10739 1 -14.1095 10.6536 1.98254 1 1.70481e-07 
10799 1 -12.3496 12.2963 1.35094 1 5.94968e-07 
11515 1 -10.5902 10.6535 1.98301 1 1.09644e-05 
11575 1 -8.82956 12.2954 1.35232 1 5.82221e-05 
12291 1 -7.06416 10.6533 1.98435 1 0.000959615 
12351 1 -5.30859 12.3025 1.35485 1 0.00506107 
13067 1 -3.60176 10.6433 1.98748 1 0.0595566 
13127 1 -1.85402 12.2563 1.38197 5 3.74549 
13603 2 0.111933 10.5302 2.10741 5 6.31561 
13604 2 0.342734 12.8095 1.11003 5 5.02743 
14015 2 2.05036 11.1158 0.510664 1 0.0552308 
14017 2 3.82154 10.4909 2.14381 1 0.00624831 
14018 2 3.81489 12.7607 1.13742 1 0.00469011 
14791 2 5.57565 11.1232 0.500229 1 0.000360036 
14793 2 7.33348 10.4907 2.14478 1 2.77431e-05 
14794 2 7.33308 12.7658 1.1338 1 5.10652e-05 
15567 2 9.09282 11.122 0.502568 1 4.03638e-06 
15569 2 10.8527 10.4903 2.14563 1 2.37435e-07 
15570 2 10.8526 12.7647 1.13479 1 5.03739e-07 
16343 2 12.6125 11.122 0.503033 1 7.92479e-08 
16345 2 14.3723 10.4901 2.14586 1 1.20609e-08 
16346 2 14.3723 12.7646 1.13497 1 2.57582e-08 
17119 2 16.1321 11.1219 0.503227 1 6.11817e-09 
17121 2 17.892 10.49 2.14599 1 1.61669e-09 
17122 2 17.892 12.7645 1.1351 1 2.04207e-09 
17895 2 19.6519 11.1218 0.503348 1 1.96072e-09 
17897 2 21.4118 10.4899 2.14609 1 2.00229e-09 
17898 2 21.4118 12.7644 1.13521 1 8.19468e-10 
18671 2 23.1716 11.1217 0.503461 1 2.97304e-10 
18673 2 24.9315 10.4898 2.1462 1 1.98563e-10 
18674 2 24.9315 12.7643 1.13532 1 4.0504e-10 
163 4 -61.6265 14.5714 2.36091 5 18.5856 
710 4 -59.8665 13.9396 0.718226 1 4.00005e-16 
715 4 -58.1065 14.5714 2.36091 1 4e-16 
1486 4 -56.3465 13.9396 0.718226 1 4.00005e-16 
1491 4 -54.5865 14.5714 2.36091 1 4e-16 
2262 4 -52.8265 13.9396 0.718226 1 5.40016e-08 
2267 1 -51.0666 14.5714 2.36093 1 4.38141e-09 
3038 1 -49.3067 13.9396 0.71826 1 1.18715e-09 
3043 1 -47.5469 14.5714 2.36097 1 1.28617e-09 
3814 1 -45.787 13.9395 0.718302 1 1.98934e-09 
3819 1 -44.0272 14.5713 2.361 1 1.08895e-09 
4590 1 -42.2673 13.9395 0.718339 1 9.55182e-10 
4595 1 -40.5075 14.5713 2.36105 1 7.08124e-10 
5366 1 -38.7476 13.9394 0.718386 1 6.45708e-10 
5371 1 -36.9878 14.5712 2.3611 1 4.17864e-10 
6142 1 -35.2279 13.9394 0.718435 1 3.53097e-10 
6147 1 -33.468 14.5712 2.36115 1 1.78789e-10 
6918 1 -31.7082 13.9393 0.718491 1 2.43266e-10 
6923 1 -29.9483 14.5711 2.36121 1 3.90942e-10 
7694 1 -28.1885 13.9393 0.718544 1 4.45177e-10 
7699 1 -26.4286 14.5711 2.36127 1 2.32409e-10 
8470 1 -24.6688 13.9392 0.718608 1 1.28286e-09 
8475 1 -22.9089 14.571 2.36132 1 2.42779e-09 
9246 1 -21.1491 13.9392 0.718683 1 2.17855e-09 
9251 1 -19.3892 14.5709 2.3614 1 3.45621e-09 
10022 1 -17.6293 13.9391 0.718778 1 8.62604e-09 
10027 1 -15.8694 14.5708 2.36149 1 1.54876e-08 
10798 1 -14.1095 13.939 0.718941 1 7.24929e-08 
10803 1 -12.3497 14.5706 2.36174 1 2.70118e-07 
11574 1 -10.5895 13.9388 0.719348 1 3.61434e-06 
11579 1 -8.82993 14.5702 2.3621 1 2.14442e-05 
12350 1 -7.07111 13.9391 0.720792 1 0.00020986 
12355 1 -5.31154 14.5681 2.36761 1 0.00448907 
13126 1 -3.54777 13.9376 0.718251 1 0.050978 
13131 1 -1.71155 14.5484 2.3079 5 4.70121 
13623 2 0.345315 14.9917 0.125473 5 4.49989 
14056 2 2.07985 14.4198 1.77664 1 0.0426773 
14055 2 3.81312 15.0453 0.120023 1 0.00510717 
14832 2 5.57115 14.4084 1.76536 1 0.000316919 
14831 2 7.33282 15.0386 0.124103 1 4.17041e-05 
15607 2 10.8525 15.0393 0.124062 1 7.99306e-07 
15608 2 9.09293 14.4077 1.76674 1 3.74432e-06 
16384 2 12.6124 14.4074 1.76679 1 8.0998e-08 
16383 2 14.3722 15.0391 0.124152 1 1.96537e-08 
17160 2 16.1321 14.4073 1.76688 1 5.47306e-09 
17159 2 17.892 15.039 0.124244 1 1.88529e-09 
17936 2 19.6519 14.4072 1.76698 1 1.12798e-09 
17935 2 21.4118 15.0389 0.124341 1 3.64023e-10 
18712 2 23.1716 14.4071 1.76707 1 6.59883e-10 
18711 2 24.9315 15.0388 0.124437 1 8.49244e-10 
191 4 -61.6265 15.5823 0.0864228 5 18.5856 
193 4 -61.6265 17.8568 1.09731 5 18.5856 
771 4 -59.8665 16.2141 1.72911 1 9.22603e-22 
770 4 -58.1065 15.5823 0.0864228 1 7.03053e-21 
774 4 -58.1065 17.8568 1.09731 1 4.00003e-16 
1546 4 -54.5865 15.5823 0.0864228 1 7.03053e-21 
1547 4 -56.3465 16.2141 1.72911 1 9.22604e-22 
1550 4 -54.5865 17.8568 1.09731 1 4.00003e-16 
2323 4 -52.8265 16.2141 1.72911 1 5.40363e-08 
2322 1 -51.0666 15.5823 0.0864317 1 3.08116e-09 
2326 1 -51.0666 17.8568 1.09733 1 1.68816e-09 
3099 1 -49.3067 16.2141 1.72915 1 1.18686e-09 
3098 1 -47.5469 15.5823 0.0864836 1 2.55927e-09 
3102 1 -47.5469 17.8567 1.09736 1 1.21965e-09 
3874 1 -44.0272 15.5822 0.0865151 1 3.17385e-10 
3875 1 -45.787 16.214 1.72918 1 8.91577e-10 
3878 1 -44.0272 17.8567 1.0974 1 1.30431e-09 
4651 1 -42.2673 16.214 1.72922 1 9.70028e-10 
4650 1 -40.5075 15.5822 0.086559 1 3.4947e-10 
4654 1 -40.5075 17.8567 1.09744 1 6.36811e-10 
5427 1 -38.7476 16.2139 1.72927 1 4.08585e-10 
5426 1 -36.9878 15.5821 0.0866078 1 3.02522e-10 
5430 1 -36.9878 17.8566 1.09748 1 4.83989e-10 
6202 1 -33.468 15.5821 0.0866589 1 1.85045e-10 
6203 1 -35.2279 16.2139 1.72932 1 2.53202e-10 
6206 1 -33.4681 17.8565 1.09754 1 2.33807e-10 
6979 1 -31.7082 16.2138 1.72937 1 3.68504e-10 
6978 1 -29.9483 15.582 0.0867109 1 1.4177e-09 
6982 1 -29.9483 17.8565 1.0976 1 4.42626e-10 
7755 1 -28.1885 16.2138 1.72944 1 4.90957e-10 
7754 1 -26.4286 15.5819 0.0867665 1 1.09191e-09 
7758 1 -26.4286 17.8564 1.09766 1 8.32064e-10 
8530 1 -22.9089 15.5819 0.086837 1 1.31335e-09 
8531 1 -24.6688 16.2137 1.72949 1 1.1742e-09 
8534 1 -22.9089 17.8564 1.09771 1 1.01054e-09 
9307 1 -21.1491 16.2137 1.72955 1 2.30207e-09 
9306 1 -19.3892 15.5818 0.0869227 1 4.19573e-09 
9310 1 -19.3892 17.8563 1.09777 1 4.23125e-09 
10083 1 -17.6293 16.2136 1.72961 1 7.15107e-09 
10082 1 -15.8694 15.5817 0.087016 1 2.41984e-08 
10086 1 -15.8694 17.8562 1.09782 1 2.06625e-08 
10859 1 -14.1095 16.2135 1.72971 1 6.81294e-08 
10858 1 -12.3496 15.5815 0.0871576 1 7.56831e-07 
10862 1 -12.3496 17.8562 1.0979 1 6.58211e-07 
11635 1 -10.5899 16.2132 1.72987 1 3.16661e-06 
11634 1 -8.82987 15.5822 0.0872315 1 4.15974e-05 
11638 1 -8.8301 17.8552 1.09713 1 5.6395e-05 
12410 1 -5.30929 15.5752 0.0840511 1 0.00526887 
12411 1 -7.0689 16.2124 1.72838 1 0.000286794 
12414 1 -5.31189 17.8598 1.10208 1 0.00483656 
13187 1 -3.57122 16.2004 1.74169 1 0.0434033 
13186 1 -1.84662 15.6288 0.0835084 5 4.43928 
13190 1 -1.83726 17.8135 1.07281 5 5.03828 
13625 2 0.234206 16.0694 2.34766 5 4.55248 
14054 2 2.05064 16.6844 0.752357 1 0.05257 
14059 2 3.81335 16.0531 2.40504 1 0.00480301 
14830 2 5.57424 16.6814 0.757954 1 0.000248055 
14835 2 7.33285 16.0505 2.39902 1 2.30185e-05 
15606 2 9.09244 16.682 0.756273 1 3.7319e-06 
15611 2 10.8525 16.0502 2.3988 1 3.72637e-07 
16382 2 12.6124 16.6818 0.756033 1 9.95891e-08 
16387 2 14.3723 16.05 2.39872 1 1.55282e-08 
17158 2 16.1321 16.6817 0.756039 1 5.48308e-09 
17163 2 17.892 16.0499 2.39876 1 2.08839e-09 
17934 2 19.6519 16.6816 0.756111 1 9.68132e-10 
17939 2 21.4118 16.0498 2.39884 1 1.11159e-09 
18710 2 23.1716 16.6815 0.756201 1 8.59458e-10 
18715 2 24.9315 16.0497 2.39893 1 3.74092e-10 
221 4 -61.6265 20.1313 2.10819 5 18.5856 
830 4 -59.8665 19.4995 0.465505 1 4.00008e-16 
832 4 -58.1065 20.1313 2.10819 1 4.00001e-16 
1606 4 -56.3465 19.4995 0.465505 1 4.00008e-16 
1608 4 -54.5865 20.1313 2.10819 1 4.00001e-16 
2382 4 -52.8265 19.4995 0.465505 1 5.32463e-08 
2384 1 -51.0666 20.1313 2.10821 1 1.0012e-09 
3158 1 -49.3067 19.4994 0.465539 1 9.82738e-10 
3160 1 -47.5469 20.1312 2.10824 1 1.7835e-09 
3934 1 -45.787 19.4994 0.46556 1 1.83869e-09 
3936 1 -44.0272 20.1312 2.10827 1 9.90465e-10 
4710 1 -42.2673 19.4994 0.46561 1 6.02033e-10 
4712 1 -40.5075 20.1311 2.10832 1 5.37546e-10 
5486 1 -38.7476 19.4993 0.465651 1 1.2224e-09 
5488 1 -36.9878 20.1311 2.10837 1 4.75054e-10 
6262 1 -35.2279 19.4993 0.465711 1 4.55862e-10 
6264 1 -33.4681 20.131 2.10843 1 2.12757e-10 
7038 1 -31.7082 19.4992 0.465771 1 3.6341e-10 
7040 1 -29.9483 20.131 2.10849 1 8.77015e-10 
7814 1 -28.1885 19.4992 0.465828 1 2.39675e-10 
7816 1 -26.4286 20.1309 2.10854 1 5.38279e-10 
8590 1 -24.6688 19.4991 0.465879 1 4.52628e-10 
8592 1 -22.9089 20.1309 2.10859 1 1.29471e-09 
9366 1 -21.1491 19.499 0.465937 1 1.53006e-09 
9368 1 -19.3892 20.1308 2.10864 1 3.35197e-09 
10142 1 -17.6293 19.499 0.465993 1 5.97817e-09 
10144 1 -15.8695 20.1308 2.10867 1 7.49016e-09 
10918 1 -14.1095 19.499 0.466032 1 3.35233e-08 
10920 1 -12.3496 20.1307 2.10867 1 1.82281e-07 
11694 1 -10.5897 19.4991 0.465904 1 4.52744e-06 
11696 1 -8.83028 20.1306 2.10829 1 2.99757e-05 
12470 1 -7.07257 19.4977 0.464233 1 0.000395648 
12472 1 -5.31869 20.1306 2.10793 1 0.00640907 
13246 1 -3.54553 19.507 0.478583 1 0.0576166 
13248 1 -1.6048 20.0917 2.08793 5 6.37549 
13648 2 0.353376 18.3602 1.42226 5 3.76676 
13649 2 0.324539 20.559 0.394223 5 5.20591 
14105 2 2.10618 19.976 2.02058 1 0.0611188 
14106 2 3.81175 18.318 1.3906 1 0.00522466 
14107 2 3.81325 20.6012 0.370655 1 0.00586176 
14881 2 5.56701 19.9674 2.02103 1 0.00101686 
14882 2 7.33259 18.3252 1.38934 1 6.51941e-05 
14883 2 7.33299 20.598 0.37811 1 8.47859e-05 
15657 2 9.09319 19.9672 2.02008 1 1.2356e-05 
15658 2 10.8525 18.3244 1.38801 1 7.11784e-07 
15659 2 10.8525 20.599 0.377021 1 5.78528e-07 
16433 2 12.6123 19.9672 2.01975 1 1.50731e-07 
16434 2 14.3722 18.3245 1.38788 1 2.18707e-08 
16435 2 14.3722 20.5989 0.376992 1 1.48404e-08 
17209 2 16.1321 19.9671 2.01969 1 5.08677e-09 
17210 2 17.892 18.3244 1.38789 1 2.33077e-09 
17211 2 17.892 20.5988 0.37702 1 1.88938e-09 
17985 2 19.6519 19.967 2.01974 1 1.94899e-09 
17986 2 21.4118 18.3243 1.38797 1 1.19818e-09 
17987 2 21.4118 20.5988 0.377094 1 1.07156e-09 
18761 2 23.1716 19.9669 2.01982 1 4.11767e-10 
18762 2 24.9315 18.3242 1.38806 1 2.18577e-10 
18763 2 24.9315 20.5987 0.377178 1 2.19553e-10 
831 4 -59.8665 21.774 1.47639 1 2.72764e-21 
1607 4 -56.3465 21.774 1.47639 1 2.72765e-21 
2383 4 -52.8265 21.774 1.47639 1 5.32933e-08 
3159 1 -49.3067 21.7739 1.47642 1 1.36748e-09 
3935 1 -45.787 21.7739 1.47644 1 2.43102e-09 
4711 1 -42.2673 21.7738 1.47649 1 1.29797e-09 
5487 1 -38.7476 21.7738 1.47653 1 7.37584e-10 
6263 1 -35.2279 21.7738 1.4766 1 6.87283e-10 
7039 1 -31.7082 21.7737 1.47665 1 5.76928e-10 
7815 1 -28.1885 21.7736 1.47671 1 6.38334e-10 
8591 1 -24.6688 21.7736 1.47676 1 8.85724e-10 
9367 1 -21.1491 21.7735 1.47682 1 1.18245e-09 
10143 1 -17.6293 21.7735 1.47687 1 4.38743e-09 
10919 1 -14.1096 21.7735 1.47691 1 4.25655e-08 
11695 1 -10.5898 21.7736 1.47695 1 3.56371e-06 
12471 1 -7.07259 21.7741 1.47471 1 0.000517669 
13247 1 -3.5322 21.749 1.49022 1 0.0700424 
14165 2 2.03493 22.2549 0.984371 1 0.0700461 
14941 2 5.57534 22.2394 1.00943 1 0.000518141 
15717 2 9.09254 22.2416 1.0089 1 3.62265e-06 
16493 2 12.6124 22.2416 1.00878 1 4.86324e-08 
17269 2 16.1321 22.2415 1.0088 1 3.41488e-09 
18045 2 19.6519 22.2415 1.00886 1 2.03513e-09 
18821 2 23.1716 22.2414 1.00894 1 6.44403e-10 
250 4 -61.6265 23.4167 0.844587 5 18.5856 
252 4 -61.6265 25.6911 1.85547 5 18.5856 
889 4 -59.8665 25.0593 0.212783 1 4.00007e-16 
891 4 -59.8665 24.0485 2.48727 1 8.0018e-16 
890 4 -58.1065 23.4167 0.844587 1 4.00005e-16 
894 4 -58.1065 25.6911 1.85547 1 7.99581e-16 
1665 4 -56.3465 25.0593 0.212783 1 4.00007e-16 
1666 4 -54.5865 23.4167 0.844587 1 4.00005e-16 
1667 4 -56.3465 24.0485 2.48727 1 8.0018e-16 
1670 4 -54.5865 25.6911 1.85547 1 7.99581e-16 
2441 4 -52.8265 25.0593 0.212783 1 5.43408e-08 
2443 4 -52.8265 24.0485 2.48727 1 5.41776e-08 
2442 1 -51.0666 23.4166 0.844603 1 1.50489e-09 
2446 1 -51.0666 25.6911 1.85548 1 1.7111e-09 
3217 1 -49.3067 25.0593 0.212815 1 1.00659e-09 
3219 1 -49.3067 24.0484 2.4873 1 4.10771e-10 
3218 1 -47.5469 23.4166 0.844629 1 1.59402e-09 
3222 1 -47.5469 25.6911 1.85552 1 7.40796e-10 
3993 1 -45.787 25.0593 0.212837 1 1.32991e-09 
3994 1 -44.0272 23.4166 0.844653 1 1.61259e-09 
3995 1 -45.787 24.0484 2.48733 1 1.19625e-09 
3998 1 -44.0272 25.6911 1.85555 1 6.90507e-10 
4769 1 -42.2673 25.0592 0.212879 1 6.86154e-10 
4771 1 -42.2673 24.0483 2.48737 1 5.74079e-10 
4770 1 -40.5075 23.4165 0.844704 1 6.60356e-10 
4774 1 -40.5075 25.691 1.85559 1 1.2915e-09 
5545 1 -38.7476 25.0592 0.212928 1 8.5515e-10 
5547 1 -38.7476 24.0483 2.48742 1 6.43314e-10 
5546 1 -36.9878 23.4165 0.844761 1 4.38941e-10 
5550 1 -36.9878 25.691 1.85565 1 3.79353e-10 
6321 1 -35.2279 25.0591 0.212986 1 3.20385e-10 
6322 1 -33.468 23.4164 0.844821 1 3.11346e-10 
6323 1 -35.2279 24.0483 2.48748 1 5.62157e-10 
6326 1 -33.468 25.6909 1.8557 1 4.64061e-10 
7097 1 -31.7082 25.0591 0.213043 1 5.50484e-10 
7099 1 -31.7082 24.0482 2.48753 1 6.7813e-10 
7098 1 -29.9483 23.4164 0.84488 1 5.60654e-10 
7102 1 -29.9483 25.6909 1.85576 1 4.05302e-10 
7873 1 -28.1885 25.059 0.213113 1 9.30842e-10 
7875 1 -28.1885 24.0481 2.4876 1 6.00367e-10 
7874 1 -26.4286 23.4163 0.844941 1 1.68706e-10 
7878 1 -26.4286 25.6908 1.85583 1 9.30618e-10 
8649 1 -24.6688 25.0589 0.213168 1 1.13627e-09 
8650 1 -22.9089 23.4162 0.844995 1 7.36727e-10 
8651 1 -24.6688 24.0481 2.48766 1 8.75762e-10 
8654 1 -22.9089 25.6907 1.85589 1 1.25468e-09 
9425 1 -21.1491 25.0589 0.213227 1 2.0213e-09 
9427 1 -21.1491 24.048 2.48772 1 1.10294e-09 
9426 1 -19.3892 23.4162 0.845049 1 3.2446e-09 
9430 1 -19.3892 25.6907 1.85594 1 3.77855e-09 
10201 1 -17.6294 25.0589 0.213286 1 5.04874e-09 
10203 1 -17.6294 24.048 2.48775 1 4.20395e-09 
10202 1 -15.8695 23.4162 0.845104 1 1.63694e-08 
10206 1 -15.8695 25.6907 1.85598 1 2.1185e-08 
10977 1 -14.1096 25.0589 0.213377 1 1.02476e-07 
10979 1 -14.1097 24.048 2.4878 1 5.24011e-08 
10978 1 -12.3497 23.4163 0.845251 1 6.80068e-07 
10982 1 -12.3497 25.6907 1.85609 1 2.18396e-07 
11753 1 -10.5897 25.0591 0.213508 1 2.25767e-06 
11755 1 -10.5898 24.048 2.48799 1 2.93599e-06 
11754 1 -8.83017 23.4162 0.844783 1 6.5104e-05 
11758 1 -8.82973 25.6903 1.85676 1 1.6482e-05 
12529 1 -7.07137 25.0573 0.214208 1 0.000426017 
12530 1 -5.30715 23.4177 0.852088 1 0.00640371 
12531 1 -7.07002 24.0473 2.48948 1 0.000237504 
12534 1 -5.31327 25.6917 1.85441 1 0.0057771 
13305 1 -3.52111 25.0814 0.233699 1 0.0842812 
13307 1 -3.55872 24.0525 2.48166 1 0.0516986 
13306 1 -1.82993 23.3901 0.831217 5 6.26047 
13310 1 -1.64403 25.6625 1.93379 5 5.72047 
13679 2 0.278101 23.8917 1.68594 5 4.61404 
14226 2 2.09646 25.5284 2.25621 1 0.0524003 
14168 2 3.81467 23.8785 1.63358 1 0.00591771 
15002 2 5.56932 25.528 2.2722 1 0.000595152 
14944 2 7.33293 23.8848 1.64117 1 5.24875e-05 
15720 2 10.8525 23.8843 1.64054 1 3.66478e-07 
15778 2 9.09307 25.5271 2.27241 1 4.89374e-06 
16554 2 12.6125 25.5269 2.27236 1 6.06386e-08 
16496 2 14.3723 23.8842 1.64058 1 6.69962e-09 
17330 2 16.1322 25.5269 2.2724 1 3.83325e-09 
17272 2 17.892 23.8842 1.64063 1 2.41896e-09 
18106 2 19.6519 25.5269 2.27246 1 3.89881e-10 
18048 2 21.4118 23.8841 1.6407 1 4.39135e-10 
18882 2 23.1716 25.5268 2.27254 1 7.0231e-10 
18824 2 24.9315 23.8841 1.64078 1 5.82469e-10 
949 4 -59.8665 27.3338 1.22367 1 3.98263e-16 
1725 4 -56.3465 27.3338 1.22367 1 3.98263e-16 
2501 4 -52.8265 27.3338 1.22367 1 5.41814e-08 
3277 1 -49.3067 27.3338 1.22369 1 1.27591e-09 
4053 1 -45.787 27.3338 1.22374 1 7.0621e-10 
4829 1 -42.2673 27.3337 1.22377 1 5.73409e-10 
5605 1 -38.7476 27.3337 1.22381 1 6.40785e-10 
6381 1 -35.2279 27.3336 1.22387 1 5.22351e-10 
7157 1 -31.7082 27.3336 1.22393 1 2.86559e-10 
7933 1 -28.1885 27.3335 1.22399 1 6.68368e-10 
8709 1 -24.6688 27.3334 1.22406 1 1.38833e-09 
9485 1 -21.1491 27.3334 1.22412 1 2.55456e-09 
10261 1 -17.6294 27.3334 1.22417 1 8.21108e-09 
11037 1 -14.1096 27.3334 1.2242 1 8.09467e-08 
11813 1 -10.5895 27.3332 1.22437 1 1.43301e-06 
12589 1 -7.07179 27.3338 1.22405 1 0.000428744 
13365 1 -3.51241 27.3047 1.2176 1 0.0868538 
13708 2 0.334487 26.1496 0.629153 5 7.18169 
14224 2 2.01879 27.831 1.26058 1 0.0816035 
14225 2 3.81178 26.1607 0.627808 1 0.00632521 
15000 2 5.57609 27.8014 1.26132 1 0.000443935 
15001 2 7.33331 26.1589 0.629871 1 3.70744e-05 
15776 2 9.09289 27.8016 1.26165 1 1.42676e-06 
15777 2 10.8526 26.1587 0.629659 1 2.24205e-07 
16552 2 12.6125 27.8014 1.26148 1 3.69405e-08 
16553 2 14.3723 26.1587 0.629674 1 1.41571e-08 
17328 2 16.1322 27.8014 1.2615 1 6.74532e-09 
17329 2 17.8921 26.1587 0.629732 1 1.58112e-09 
18104 2 19.6519 27.8014 1.26156 1 1.23825e-09 
18105 2 21.4118 26.1586 0.62981 1 4.75167e-10 
18880 2 23.1716 27.8013 1.26165 1 6.53941e-10 
18881 2 24.9315 26.1586 0.629897 1 2.46889e-10 
281 4 -61.6265 28.9765 0.591865 5 18.5856 
950 4 -59.8665 29.6083 2.23455 1 6.9988e-16 
952 4 -58.1065 28.9765 0.591865 1 9.95688e-16 
1726 4 -56.3465 29.6083 2.23455 1 6.9988e-16 
1728 4 -54.5865 28.9765 0.591865 1 9.95688e-16 
2502 4 -52.8265 29.6083 2.23455 1 5.45792e-08 
2504 1 -51.0666 28.9765 0.591878 1 1.19227e-09 
3278 1 -49.3067 29.6083 2.23458 1 9.86635e-10 
3280 1 -47.5469 28.9765 0.591913 1 8.56593e-10 
4054 1 -45.787 29.6083 2.23462 1 9.46799e-10 
4056 1 -44.0272 28.9764 0.591955 1 6.01265e-10 
4830 1 -42.2673 29.6082 2.23466 1 7.43838e-10 
4832 1 -40.5075 28.9764 0.591988 1 7.84511e-10 
5606 1 -38.7476 29.6082 2.2347 1 7.43624e-10 
5608 1 -36.9877 28.9763 0.592039 1 2.79073e-10 
6382 1 -35.2279 29.6081 2.23475 1 8.4598e-10 
6384 1 -33.468 28.9763 0.592096 1 4.66421e-10 
7158 1 -31.7082 29.6081 2.23482 1 4.52364e-10 
7160 1 -29.9483 28.9762 0.592162 1 3.01165e-10 
7934 1 -28.1885 29.608 2.23488 1 3.75853e-10 
7936 1 -26.4286 28.9762 0.592225 1 6.8303e-10 
8710 1 -24.6688 29.6079 2.23495 1 6.08068e-10 
8712 1 -22.9089 28.9761 0.59229 1 5.22418e-10 
9486 1 -21.1491 29.6079 2.23501 1 9.64974e-10 
9488 1 -19.3893 28.9761 0.592352 1 5.10191e-09 
10262 1 -17.6294 29.6079 2.23504 1 1.71773e-08 
10264 1 -15.8695 28.9761 0.592398 1 3.12917e-08 
11038 1 -14.1095 29.6078 2.23505 1 8.39428e-08 
11040 1 -12.3495 28.976 0.59242 1 3.43705e-07 
11814 1 -10.5899 29.6075 2.23515 1 6.01814e-06 
11816 1 -8.82967 28.9758 0.592741 1 4.18058e-05 
12590 1 -7.06498 29.6066 2.23499 1 0.000716285 
12592 1 -5.30684 28.9733 0.589093 1 0.00641923 
13366 1 -3.59575 29.6056 2.22065 1 0.0546693 
13368 1 -1.8281 28.9917 0.594352 5 6.77046 
13738 2 0.133551 29.4767 1.96447 5 5.88225 
14284 2 2.02969 30.057 0.27409 1 0.0786948 
14286 2 3.81877 29.4446 1.89278 1 0.0057756 
15060 2 5.5755 30.0783 0.251275 1 0.000459432 
15062 2 7.33348 29.4448 1.89392 1 1.83667e-05 
15836 2 9.09313 30.0759 0.250617 1 2.66893e-06 
15838 2 10.8528 29.4442 1.89333 1 1.61329e-07 
16612 2 12.6126 30.0759 0.250544 1 9.24026e-08 
16614 2 14.3724 29.4441 1.89327 1 1.26968e-08 
17388 2 16.1322 30.0759 0.250574 1 1.03233e-08 
17390 2 17.892 29.4441 1.89331 1 3.41788e-09 
18164 2 19.6519 30.0759 0.250658 1 1.22181e-09 
18166 2 21.4118 29.444 1.8934 1 1.05741e-09 
18940 2 23.1716 30.0758 0.250761 1 6.75727e-10 
18942 2 24.9315 29.4439 1.89349 1 4.56373e-10 
310 4 -61.6265 31.251 1.60275 5 18.5856 
1009 4 -59.8665 32.8937 0.970947 1 1.79413e-15 
1010 4 -58.1065 31.251 1.60275 1 6.99823e-16 
1785 4 -56.3465 32.8937 0.970947 1 1.79413e-15 
1786 4 -54.5865 31.251 1.60275 1 6.99823e-16 
2561 4 -52.8265 32.8937 0.970947 1 5.40663e-08 
2562 1 -51.0666 31.251 1.60276 1 1.0236e-09 
3337 1 -49.3067 32.8937 0.970972 1 1.74692e-09 
3338 1 -47.5469 31.251 1.60279 1 2.04219e-09 
4113 1 -45.787 32.8936 0.97102 1 2.39307e-09 
4114 1 -44.0272 31.2509 1.60284 1 1.06328e-09 
4889 1 -42.2673 32.8936 0.971045 1 1.95006e-09 
4890 1 -40.5075 31.2509 1.60287 1 8.12825e-10 