ITEM: TIMESTEP
0
ITEM: NUMBER OF ATOMS
27496
ITEM: BOX BOUNDS ss pp pp
-64.5905 130.554
0 36.9181
0 41.6492
ITEM: ATOMS id type x y z c_cna c_csd 
178 4 -62.463 2.36211 1.7172 1 6e-16 
180 4 -64.0231 0.516207 1.12222 5 18.5856 
181 4 -61.8957 0.0127788 2.31219 1 7.99349e-16 
632 4 -60.6193 1.18744 0.527226 1 7.9996e-16 
633 4 -58.4919 0.684016 1.7172 1 7.00192e-16 
1130 4 -56.9319 2.52992 2.31219 1 1.09978e-15 
1133 4 -55.0881 1.35525 1.12222 1 3.51046e-09 
1682 1 -52.9608 0.851792 2.31218 1 2.50569e-09 
1634 1 -51.6844 2.02645 0.527225 1 1.75017e-09 
2182 1 -49.557 1.52298 1.71719 1 8.52155e-09 
2183 1 -47.7133 0.34828 0.52724 1 6.79603e-09 
2683 1 -46.1533 2.19418 1.12224 1 3.68494e-09 
2684 1 -44.0259 1.69073 2.31222 1 6.42123e-09 
3185 1 -42.1822 0.516007 1.12225 1 9.23764e-09 
3186 1 -40.6222 2.36186 1.71721 1 4.20139e-09 
3234 1 -40.0549 0.0125266 2.31221 1 4.54452e-09 
3688 1 -38.7785 1.18711 0.527211 1 8.49185e-09 
3736 1 -36.6511 0.683599 1.71718 1 7.33796e-09 
4235 1 -35.0911 2.52942 2.31219 1 6.96496e-09 
4237 1 -33.2474 1.35465 1.12222 1 1.07481e-08 
4736 1 -31.1201 0.851151 2.31222 1 1.65956e-08 
4737 1 -29.8437 2.02572 0.527285 1 3.05195e-08 
5238 1 -27.7165 1.52225 1.71728 1 7.00865e-08 
5240 1 -25.8726 0.347419 0.52741 1 7.18101e-08 
5739 1 -24.3126 2.19334 1.12242 1 1.1214e-07 
5788 1 -22.1852 1.69013 2.31243 1 2.85629e-07 
6288 1 -18.7808 2.36158 1.71768 1 2.78585e-06 
6290 1 -20.3412 0.515388 1.12283 1 1.33223e-06 
6291 1 -18.2138 0.0125463 2.31325 1 4.3129e-06 
6792 1 -16.9375 1.18648 0.527991 1 6.42952e-06 
6793 1 -14.8104 0.683831 1.71889 1 2.31216e-05 
7290 1 -13.2502 2.52979 2.31316 1 8.21933e-05 
7293 1 -11.4093 1.3515 1.12212 1 0.000245691 
7842 1 -9.28042 0.857736 2.30997 1 0.000913729 
7794 1 -8.00051 2.01368 0.519991 1 0.0104 
8342 1 -5.8792 1.5377 1.69431 1 0.0984556 
8343 1 -3.88675 0.256536 0.606891 1 0.608303 
8792 1 -2.17509 1.99575 1.27239 5 2.99176 
9020 2 0.343626 1.27127 1.82408 5 5.60766 
9108 2 3.94125 1.81198 2.26641 1 0.0608944 
9113 2 2.56546 0.707787 0.524715 1 0.177087 
9407 2 6.04106 1.32743 1.08462 1 0.00883509 
9406 2 7.87182 0.148217 2.27763 1 0.000881694 
9871 2 9.43347 2.001 1.68321 1 0.000350369 
9873 2 11.5616 1.50383 0.489677 1 4.72543e-05 
10379 2 13.4062 0.329864 1.67789 1 1.62087e-05 
10384 2 14.9659 2.17661 1.08201 1 6.75234e-06 
10890 2 16.811 1.00201 2.27074 1 2.09815e-06 
10899 2 18.9383 0.498692 1.08049 1 6.09894e-07 
11413 2 22.3427 1.16978 1.67495 1 3.57161e-07 
11414 2 20.4984 2.34469 0.485312 1 3.39219e-07 
11924 2 24.4699 0.666274 0.485014 1 1.4402e-07 
11925 2 25.7465 1.84077 2.26988 1 1.47864e-07 
12434 2 27.8737 1.33727 1.07994 1 6.39618e-08 
12436 2 29.7175 0.162471 2.26993 1 2.93363e-08 
12945 2 31.2775 2.00831 1.67499 1 1.21175e-08 
155 4 -64.5904 2.86554 0.527226 5 37.1712 
156 4 -63.0303 4.71144 1.12222 5 12.3904 
628 4 -60.903 4.20801 2.31219 1 8.9978e-16 
630 4 -59.0592 3.03335 1.12222 1 1.19936e-15 
1129 4 -57.4992 4.87925 1.7172 1 7.00001e-16 
1131 4 -55.6554 3.70459 0.527226 1 1.09048e-09 
1632 1 -53.5281 3.20114 1.7172 1 2.6578e-09 
1633 1 -51.968 5.04703 2.31221 1 1.64795e-09 
2134 1 -50.1243 3.87234 1.12223 1 3.96347e-09 
2180 1 -47.997 3.3689 2.3122 1 1.84101e-09 
2636 1 -46.7205 4.54354 0.527275 1 5.05446e-09 
2681 1 -44.5932 4.04008 1.71724 1 5.34582e-09 
3184 1 -42.7495 2.86534 0.52725 1 6.45892e-09 
3182 1 -41.1894 4.7112 1.12223 1 1.81817e-09 
3685 1 -39.0621 4.20771 2.31218 1 8.98203e-09 
3689 1 -37.2184 3.03294 1.12219 1 6.47004e-09 
4187 1 -35.6584 4.87879 1.71721 1 3.18862e-09 
4189 1 -33.8147 3.70401 0.527249 1 6.86621e-09 
4735 1 -31.6874 3.20052 1.71725 1 1.23659e-08 
4733 1 -30.1274 5.04637 2.31225 1 2.46807e-08 
5237 1 -28.2837 3.87157 1.12228 1 4.51286e-08 
5239 1 -26.1564 3.36812 2.31225 1 1.16026e-07 
5738 1 -24.8798 4.54258 0.527349 1 6.86525e-08 
5740 1 -22.7524 4.03925 1.71732 1 1.45733e-07 
6240 1 -20.9083 2.86455 0.527585 1 8.19046e-07 
6241 1 -19.3478 4.71054 1.12226 1 1.48935e-06 
6788 1 -17.22 4.20773 2.31227 1 6.38927e-06 
6790 1 -15.377 3.03227 1.12231 1 1.89442e-05 
7289 1 -13.8168 4.8784 1.71701 1 7.83262e-05 
7291 1 -11.9772 3.6975 0.525242 1 0.000206929 
7792 1 -9.85201 3.196 1.71317 1 0.00109462 
7793 1 -8.30308 5.04566 2.29923 1 0.00510281 
8294 1 -6.44083 3.8616 1.09804 1 0.0433209 
8340 1 -4.34955 3.42298 2.2752 1 0.429357 
8747 1 -2.82691 4.42265 0.639369 5 1.56243 
9019 2 -0.244216 3.57013 2.15281 5 6.86448 
9106 2 2.0457 3.05213 1.13197 1 0.24131 
9111 2 3.61144 4.89451 0.50586 1 0.036453 
9397 2 5.48773 3.67579 1.67753 1 0.0178826 
9408 2 7.59924 3.18018 0.49241 1 0.00236946 
9860 2 8.86484 4.34812 2.27963 1 0.000890417 
9872 2 10.9923 3.85179 1.08554 1 0.000150407 
10381 2 12.8376 2.67828 2.27339 1 2.51763e-05 
10383 2 14.3978 4.52558 1.67711 1 8.2691e-06 
10893 2 16.526 4.02288 0.486343 1 2.60686e-06 
10894 2 17.8034 5.19756 2.27028 1 1.58334e-06 
10895 2 18.3709 2.84818 1.6754 1 9.85526e-07 
11405 2 19.931 4.69411 1.08022 1 5.77009e-07 
11407 2 21.7754 3.5192 2.26986 1 6.04096e-07 
11926 2 23.9026 3.01567 1.07997 1 2.29742e-07 
11927 2 25.4627 4.86145 0.485012 1 1.19589e-07 
12437 2 27.3065 3.68659 1.67495 1 7.41379e-08 
12439 2 29.4338 3.18308 0.485011 1 3.5441e-08 
12948 2 30.7102 4.35763 2.27002 1 1.45525e-08 
12951 2 32.8375 3.85414 1.08003 1 7.63672e-09 
153 4 -63.5976 7.06077 0.527226 5 18.5856 
583 4 -61.4703 6.55735 1.7172 1 1.1e-15 
585 4 -59.6265 5.38268 0.527226 1 1.00016e-15 
1086 4 -58.0665 7.22858 1.12222 1 1.39936e-15 
1127 4 -55.9391 6.72516 2.31219 1 7.29408e-10 
1588 4 -54.6627 7.89982 0.527226 1 4.28623e-09 
1629 1 -52.5353 7.39637 1.71723 1 2.52274e-09 
1631 1 -54.0954 5.55048 1.12223 1 1.36581e-09 
2133 1 -50.6916 6.22169 0.527273 1 5.08235e-09 
2135 1 -48.5642 5.71825 1.71725 1 4.84484e-09 
2633 1 -47.0042 7.56414 2.31225 1 7.44074e-09 
2637 1 -45.1605 6.38942 1.12228 1 2.62554e-09 
3138 1 -41.7567 7.06055 0.527277 1 2.03477e-09 
3180 1 -43.0331 5.88594 2.31223 1 1.92563e-09 
3684 1 -39.6294 6.55707 1.71722 1 3.22531e-09 
3686 1 -37.7857 5.3823 0.527224 1 4.15385e-09 
4186 1 -36.2256 7.22815 1.12223 1 3.5029e-09 
4188 1 -34.0983 6.72465 2.31223 1 4.96545e-09 
4688 1 -32.8219 7.8992 0.527254 1 8.34477e-09 
4689 1 -32.2547 5.54986 1.12225 1 1.23462e-08 
4690 1 -30.6946 7.39568 1.71723 1 1.87179e-08 
5192 1 -28.8509 6.22088 0.527275 1 2.71281e-08 
5235 1 -26.7236 5.71738 1.71723 1 6.54179e-08 
5734 1 -25.1635 7.56317 2.31212 1 1.34513e-07 
5736 1 -23.3196 6.38838 1.12222 1 1.33448e-07 
6237 1 -21.192 5.88512 2.31209 1 2.73169e-07 
6238 1 -19.915 7.0595 0.527191 1 9.47686e-07 
6743 1 -17.7871 6.55666 1.71698 1 4.61561e-06 
6745 1 -15.9434 5.38136 0.526712 1 2.06554e-05 
7246 1 -14.3831 7.228 1.12209 1 7.94088e-05 
7287 1 -12.2576 6.72646 2.31298 1 0.000345671 
7748 1 -10.9894 7.89296 0.525435 1 0.000965332 
7789 1 -8.87675 7.39137 1.71055 1 0.00537965 
7791 1 -10.4224 5.54128 1.11789 1 0.00111007 
8293 1 -7.0195 6.1921 0.513167 1 0.0157933 
8295 1 -4.89852 5.73901 1.67082 1 0.167896 
8744 1 -3.26765 7.64411 2.14867 5 4.48587 
8745 1 -1.16292 7.63292 0.1431 5 5.92425 
9021 2 -0.926497 5.83214 1.58306 5 8.79915 
9093 2 0.84497 7.63893 2.102 5 4.49789 
9109 2 1.51729 5.37209 1.76609 5 4.3108 
9110 2 3.05848 7.23096 1.06998 1 0.0619195 
9400 2 4.92992 6.02478 2.26502 1 0.0210346 
9402 2 6.47251 7.88583 1.6716 1 0.00566938 
9403 2 7.03663 5.53345 1.08499 1 0.00388107 
9864 2 8.58789 7.38391 0.487341 1 0.000956128 
9866 2 10.4241 6.20087 1.6803 1 0.000303293 
10374 2 13.8295 6.87456 2.27199 1 1.37454e-05 
10385 2 12.5527 5.69989 0.488685 1 4.91985e-05 
10896 2 15.9581 6.37204 1.08129 1 3.64956e-06 
11408 2 19.3636 7.04338 1.67512 1 7.06443e-07 
11410 2 21.4912 6.53987 0.485157 1 2.91986e-07 
11914 2 23.3354 5.36501 1.67492 1 3.28888e-07 
11917 2 22.7682 7.71429 2.26987 1 4.58194e-07 
11920 2 24.8955 7.21076 1.07999 1 1.67133e-07 
12423 2 26.7393 6.03591 2.26996 1 8.61008e-08 
12429 2 28.2993 7.88173 1.67501 1 5.0811e-08 
12438 2 28.8665 5.5324 1.08003 1 4.09988e-08 
12950 2 32.2703 6.20347 1.67502 1 7.97886e-09 
12952 2 30.4266 7.37823 0.48504 1 1.87044e-08 
151 4 -63.8813 10.0813 2.31219 5 18.5856 
582 4 -62.0376 8.90668 1.12222 1 1.19956e-15 
584 4 -59.9102 8.40325 2.31219 1 1.09958e-15 
1085 4 -58.6338 9.57792 0.527226 1 7.9956e-16 
1087 4 -56.5064 9.07449 1.7172 1 2.01191e-10 
1589 1 -53.1026 9.7457 1.12223 1 9.27518e-10 
2092 1 -49.6988 10.4169 0.52725 1 4.72421e-09 
2129 1 -50.9752 9.24226 2.31223 1 2.335e-09 
2131 1 -49.1315 8.06759 1.12227 1 6.98791e-09 
2632 1 -47.5715 9.91347 1.71725 1 7.09906e-09 
2634 1 -45.7277 8.73876 0.527292 1 6.70713e-09 
3136 1 -43.6004 8.23529 1.71726 1 4.76367e-09 
3137 1 -42.0403 10.0812 2.31225 1 4.91204e-09 
3642 1 -40.1966 8.90642 1.12227 1 4.27758e-09 
3682 1 -38.0693 8.40293 2.31223 1 6.0438e-09 
4146 1 -36.7929 9.57751 0.527266 1 5.21426e-09 
4184 1 -34.6656 9.074 1.71724 1 2.60989e-09 
4686 1 -31.2619 9.74501 1.12224 1 8.3025e-09 
5189 1 -29.1346 9.24148 2.31218 1 2.62871e-08 
5190 1 -27.8581 10.416 0.527204 1 6.07065e-08 
5193 1 -27.2908 8.06666 1.12221 1 4.94278e-08 
5693 1 -25.7308 9.91245 1.71713 1 1.39827e-07 
5695 1 -23.8868 8.73759 0.527229 1 1.35605e-07 
6236 1 -21.7593 8.2342 1.71708 1 3.95393e-07 
6234 1 -20.1992 10.0802 2.31206 1 1.19044e-06 
6742 1 -18.3545 8.90562 1.12224 1 3.12839e-06 
6744 1 -16.2268 8.40341 2.3123 1 1.40457e-05 
7245 1 -14.9502 9.57758 0.528042 1 4.74934e-05 
7247 1 -12.8242 9.07675 1.71953 1 0.000269846 
7749 1 -9.43948 9.74208 1.12473 1 0.00389087 
8252 1 -6.02003 10.3812 0.545086 1 0.0260216 
8289 1 -7.33462 9.25088 2.30546 1 0.0194094 
8291 1 -5.4675 8.04464 1.10991 1 0.0615176 
8743 1 -3.92389 9.9063 1.79339 5 4.19765 
8746 1 -1.49226 9.4151 1.5923 5 8.4461 
9099 2 2.48593 9.53918 1.62596 1 0.162777 
9404 2 4.61235 9.08559 0.472682 1 0.0139647 
9388 2 5.89617 10.2324 2.25841 1 0.00536271 
9865 2 9.85597 8.55116 2.27416 1 0.000422012 
9867 2 8.01947 9.7364 1.07971 1 0.001124 
10372 2 11.9847 8.04949 1.08342 1 9.05308e-05 
10375 2 11.4178 10.3992 1.67789 1 0.000102302 
10377 2 13.546 9.89602 0.486968 1 2.56278e-05 
10880 2 15.3905 8.72104 1.67612 1 4.91929e-06 
10897 2 17.5188 8.21799 0.485776 1 1.43667e-06 
11390 2 18.7964 9.39249 2.27005 1 6.76979e-07 
11409 2 20.924 8.88909 1.08009 1 3.32369e-07 
11919 2 24.3283 9.56005 1.67495 1 2.36416e-07 
12427 2 26.4556 9.05654 0.485037 1 8.77705e-08 
12428 2 27.7321 10.2311 2.26996 1 6.62302e-08 
12936 2 29.8594 9.72758 1.08 1 2.71006e-08 
12938 2 31.703 8.55281 2.26999 1 9.57522e-09 
145 4 -64.4486 12.4307 1.7172 5 37.1712 
543 4 -62.6049 11.256 0.527226 5 6.1952 
544 4 -61.0448 13.1019 1.12222 1 9.99361e-16 
580 4 -60.4775 10.7526 1.7172 1 1.1002e-15 
1081 4 -58.9174 12.5985 2.31219 1 9.9978e-16 
1083 4 -57.0737 11.4238 1.12222 1 1.09936e-15 
1585 4 -54.9463 10.9204 2.31219 1 3.76545e-09 
1586 1 -53.6699 12.095 0.527233 1 5.96274e-10 
2090 1 -51.5425 11.5916 1.71722 1 2.05701e-09 
2595 1 -48.1388 12.2628 1.12224 1 8.3202e-09 
2630 1 -46.0114 11.7593 2.31224 1 3.85463e-09 
3099 1 -44.735 12.934 0.527288 1 5.65458e-09 
3135 1 -44.1677 10.5846 1.12228 1 4.51603e-09 
3133 1 -42.6076 12.4305 1.71727 1 3.23501e-09 
3639 1 -39.2039 13.1016 1.12227 1 5.28514e-09 
3641 1 -40.7639 11.2558 0.527306 1 6.58059e-09 
3643 1 -38.6366 10.7523 1.71726 1 8.99543e-09 
4143 1 -37.0765 12.5981 2.31226 1 1.09564e-08 
4147 1 -35.2328 11.4234 1.12228 1 8.14319e-09 
4650 1 -31.8291 12.0944 0.527261 1 6.65397e-09 
4684 1 -33.1055 10.9198 2.31225 1 4.75397e-09 
5188 1 -29.7018 11.5908 1.7172 1 2.20893e-08 
5692 1 -26.2981 12.2618 1.12217 1 1.4373e-07 
5694 1 -24.1708 11.7583 2.31207 1 3.88982e-07 
6196 1 -22.894 12.9328 0.527395 1 2.73244e-07 
6197 1 -22.3267 10.5834 1.12221 1 4.02846e-07 
6198 1 -20.7667 12.4295 1.71738 1 7.92149e-07 
6703 1 -18.9221 11.2547 0.527727 1 2.04369e-06 
6704 1 -17.3622 13.1012 1.12355 1 5.78287e-06 
6740 1 -16.7945 10.7524 1.71797 1 7.95392e-06 
7241 1 -15.2348 12.6 2.31483 1 2.1689e-05 
7243 1 -13.3909 11.4259 1.12574 1 0.000138916 
7745 1 -11.2659 10.9287 2.32035 1 0.000859758 
7746 1 -10.0005 12.095 0.53271 1 0.00263037 
8250 1 -7.89265 11.5974 1.72023 1 0.0178336 
8706 1 -4.44736 12.2153 1.17217 1 0.22969 
8741 1 -2.16664 11.6899 2.18315 5 6.043 
9097 2 0.396073 10.842 0.587566 5 1.75402 
9098 2 1.93127 11.8538 2.22369 1 0.391062 
9386 2 4.02963 11.4152 1.05169 1 0.0394725 
9846 2 7.44686 12.0823 1.67195 1 0.00117292 
9868 2 9.57745 11.5802 0.487261 1 0.000229341 
10352 2 10.8515 12.748 2.27258 1 0.000109588 
10376 2 12.9797 12.2452 1.0819 1 2.22403e-05 
10883 2 14.8236 11.07 2.27103 1 6.30153e-06 
10885 2 16.3848 12.916 1.67577 1 2.29341e-06 
10886 2 16.9516 10.567 1.08069 1 1.66282e-06 
11394 2 18.5124 12.4129 0.485552 1 7.41118e-07 
11396 2 20.3569 11.2382 1.67507 1 3.42494e-07 
11901 2 21.9171 13.0841 1.08011 1 2.06965e-07 
11921 2 22.4843 10.7348 0.48512 1 2.01215e-07 
11903 2 23.7611 11.9093 2.26991 1 2.93628e-07 
12430 2 25.8884 11.4059 1.07999 1 1.26643e-07 
12939 2 29.2921 12.0769 1.67495 1 3.75869e-08 
12941 2 31.4194 11.5734 0.484976 1 1.63915e-08 
13446 2 32.6957 12.748 2.26994 1 7.21095e-09 
540 4 -62.8885 14.2766 2.31219 5 12.3904 
541 4 -61.6121 15.4512 0.527226 1 9.00161e-16 
1046 4 -59.4847 14.9478 1.7172 1 6e-16 
1048 4 -57.641 13.7732 0.527226 1 3.00161e-16 
1552 4 -56.0809 15.6191 1.12222 1 1.10378e-09 
1584 4 -55.5136 13.2697 1.7172 1 2.13497e-09 
1582 1 -53.9536 15.1156 2.3122 1 9.43384e-10 
2089 1 -52.1098 13.9409 1.12224 1 1.11458e-09 
2087 1 -50.5498 15.7868 1.71723 1 1.86432e-09 
2091 1 -49.9825 13.4375 2.31222 1 1.07874e-09 
2594 1 -48.7061 14.6121 0.527271 1 5.09405e-09 
2596 1 -46.5787 14.1087 1.71726 1 4.88882e-09 
3100 1 -43.1749 14.7798 1.12228 1 3.54599e-09 
3607 1 -39.7712 15.451 0.527264 1 3.70582e-09 
3637 1 -41.0476 14.2764 2.31224 1 4.06944e-09 
4142 1 -37.6438 14.9475 1.71724 1 4.78268e-09 
4144 1 -35.8001 13.7727 0.527278 1 7.78587e-09 
4647 1 -34.2401 15.6185 1.12224 1 3.14866e-09 
4648 1 -33.6728 13.2692 1.71726 1 6.89518e-09 
4649 1 -32.1128 15.115 2.31222 1 1.04337e-08 
5153 1 -30.2691 13.9402 1.12222 1 2.66416e-08 
5154 1 -28.7091 15.786 1.71721 1 6.35605e-08 
5186 1 -28.1418 13.4366 2.31216 1 6.59187e-08 
5658 1 -26.8653 14.6112 0.527256 1 1.0345e-07 
5690 1 -24.7381 14.1077 1.71719 1 2.72535e-07 
6194 1 -21.334 14.7789 1.12264 1 5.20425e-07 
6700 1 -19.2068 14.2759 2.31287 1 1.6628e-06 
6701 1 -17.93 15.4502 0.528604 1 4.18636e-06 
7206 1 -15.8027 14.9482 1.7198 1 1.48568e-05 
7208 1 -13.959 13.7739 0.530702 1 4.09122e-05 
7712 1 -12.4006 15.6217 1.12726 1 9.31623e-05 
7744 1 -11.8327 13.276 1.72468 1 0.000341716 
7742 1 -10.2725 15.1272 2.32123 1 0.000833175 
8249 1 -8.44471 13.9445 1.12763 1 0.00985315 
8247 1 -6.88676 15.7969 1.7131 1 0.0430883 
8251 1 -6.34765 13.4574 2.31203 1 0.0653142 
8705 1 -4.97613 14.5566 0.576831 1 0.171822 
8707 1 -2.72183 13.9958 1.85103 5 5.42111 
8978 1 -0.809426 15.6839 1.88308 5 6.21967 
9100 2 -0.239256 13.2322 1.20536 5 2.8825 
9101 2 1.45005 15.015 0.5335 1 0.66889 
9389 2 3.45854 13.7389 1.63873 1 0.0943909 
9390 2 5.026 15.5958 1.06256 1 0.0225154 
9391 2 5.59041 13.2635 0.474087 1 0.00968055 
9849 2 6.87443 14.4193 2.26491 1 0.000869242 
9852 2 9.00944 13.9261 1.08199 1 0.000345763 
10356 2 10.5709 15.7697 0.488413 1 7.70347e-05 
10358 2 12.4135 14.5939 1.6775 1 2.72807e-05 
10887 2 14.5409 14.091 0.486487 1 6.82671e-06 
10865 2 15.818 15.2652 2.27102 1 3.04141e-06 
11395 2 19.7898 13.5874 2.27008 1 3.99336e-07 
11397 2 17.9454 14.7621 1.08064 1 9.83376e-07 
11904 2 21.3499 15.4334 1.67507 1 2.6567e-07 
11906 2 23.4772 14.93 0.485113 1 1.20847e-07 
12407 2 25.3211 13.7552 1.67495 1 1.51275e-07 
12413 2 26.8811 15.6011 1.07995 1 8.52325e-08 
12431 2 27.4484 13.2517 0.484988 1 6.62712e-08 
12914 2 28.7248 14.4263 2.26992 1 4.5108e-08 
12940 2 30.8521 13.9228 1.07994 1 2.23723e-08 
13450 2 32.4121 15.7687 0.484951 1 1.41972e-08 
539 4 -63.4558 16.6259 1.7172 5 18.5856 
1045 4 -60.052 17.2971 1.12222 1 7.99361e-16 
1047 4 -57.9246 16.7937 2.31219 1 9.99779e-16 
1551 4 -56.6482 17.9684 0.527226 1 2.10074e-10 
1553 1 -54.5208 17.4649 1.7172 1 1.9362e-09 
2058 1 -52.6771 16.2903 0.527234 1 1.89934e-09 
2059 1 -51.1171 18.1361 1.12221 1 3.68045e-09 
2590 1 -48.9897 17.6327 2.3122 1 4.02346e-09 
2592 1 -47.146 16.458 1.12227 1 6.29044e-09 
3095 1 -45.586 18.3039 1.71724 1 3.41286e-09 
3096 1 -45.0187 15.9545 2.31224 1 2.38367e-09 
3097 1 -43.7422 17.1292 0.527279 1 5.29998e-09 
3605 1 -41.6149 16.6257 1.71725 1 8.11598e-09 
4111 1 -38.2112 17.2968 1.12222 1 4.64491e-09 
4140 1 -36.0838 16.7933 2.3122 1 5.81341e-09 
4617 1 -34.8074 17.9679 0.527216 1 6.8531e-09 
4645 1 -32.6801 17.4643 1.71721 1 1.53399e-08 
5150 1 -29.2764 18.1354 1.12225 1 4.80831e-08 
5152 1 -30.8364 16.2895 0.527243 1 2.72154e-08 
5655 1 -27.1492 17.6319 2.31222 1 1.32645e-07 
5659 1 -25.3054 16.4571 1.12233 1 1.35981e-07 
6162 1 -23.7454 18.3031 1.71741 1 1.58059e-07 
6164 1 -21.9013 17.1282 0.527731 1 5.17001e-07 
6192 1 -23.1782 15.9538 2.31229 1 3.72671e-07 
6699 1 -19.774 16.6252 1.71797 1 1.52817e-06 
7205 1 -16.3704 17.2967 1.12405 1 9.72625e-06 
7207 1 -14.2432 16.7953 2.31586 1 4.11892e-05 
7711 1 -12.9685 17.9669 0.529191 1 5.35654e-05 
7713 1 -10.8404 17.4684 1.72097 1 0.000270876 
8218 1 -9.00126 16.2901 0.529614 1 0.00549427 
8219 1 -7.43704 18.1355 1.11188 1 0.0255981 
8701 1 -5.347 17.6646 2.28656 1 0.223943 
8703 1 -3.31729 16.3111 1.20546 5 1.24384 
8977 1 -1.56877 18.026 1.91741 5 6.35344 
9082 2 0.908827 17.3949 1.13784 5 1.05233 
9362 2 2.92528 16.0646 2.23174 1 0.202474 
9368 2 4.47566 17.9312 1.66478 1 0.0375487 
9853 2 6.59814 17.4426 0.486499 1 0.00444819 
9851 2 8.44007 16.2675 1.67852 1 0.000353599 
10357 2 11.8464 16.9417 2.27371 1 5.25557e-05 
10359 2 10.0028 18.1147 1.0858 1 0.000133474 
10863 2 13.9741 16.4401 1.08215 1 9.31697e-06 
10868 2 15.5339 18.2864 0.486662 1 4.37655e-06 
11370 2 17.3783 17.1116 1.67573 1 1.3021e-06 
11398 2 19.5057 16.6082 0.485513 1 4.61709e-07 
11875 2 20.7827 17.7828 2.26999 1 4.89444e-07 
11905 2 22.9099 17.2794 1.08005 1 1.8625e-07 
12410 2 24.7539 16.1045 2.2699 1 2.06805e-07 
12412 2 26.3138 17.9504 1.67491 1 1.08435e-07 
12918 2 28.441 17.447 0.484951 1 5.48671e-08 
12920 2 30.2848 16.2722 1.67493 1 2.47456e-08 
13423 2 31.8448 18.118 1.07996 1 1.20393e-08 
514 4 -64.0231 18.9752 1.12222 5 18.5856 
515 4 -62.463 20.8211 1.7172 1 9e-16 
537 4 -61.8957 18.4718 2.31219 1 7.99781e-16 
1018 4 -60.6193 19.6465 0.527226 1 1.00016e-15 
1043 4 -58.4919 19.1431 1.7172 1 4e-16 
1547 4 -56.9319 20.989 2.31219 1 1.09978e-15 
1549 4 -55.0881 19.8143 1.12222 1 3.50776e-09 
2055 1 -52.9608 19.3108 2.31218 1 2.50548e-09 
2056 1 -51.6844 20.4855 0.527225 1 1.7502e-09 
2562 1 -49.557 19.982 1.71719 1 8.5215e-09 
2564 1 -47.7133 18.8073 0.52724 1 6.79606e-09 
3069 1 -46.1533 20.6532 1.12224 1 3.68494e-09 
3093 1 -44.0259 20.1498 2.31222 1 6.42123e-09 
3604 1 -42.1822 18.975 1.12225 1 9.23765e-09 
3602 1 -40.6222 20.8209 1.71721 1 4.20136e-09 
3606 1 -40.0549 18.4716 2.31221 1 4.54454e-09 
4110 1 -38.7785 19.6461 0.527211 1 8.49184e-09 
4112 1 -36.6511 19.1426 1.71718 1 7.33795e-09 
4614 1 -35.0911 20.9885 2.31219 1 6.96496e-09 
4618 1 -33.2474 19.8137 1.12222 1 1.07481e-08 
5125 1 -29.8437 20.4848 0.527285 1 3.05196e-08 
5148 1 -31.1201 19.3102 2.31222 1 1.65956e-08 
5654 1 -27.7165 19.9813 1.71728 1 7.00864e-08 
5656 1 -25.8726 18.8065 0.52741 1 7.18101e-08 
6161 1 -24.3126 20.6524 1.12242 1 1.1214e-07 
6163 1 -22.1852 20.1492 2.31243 1 2.85629e-07 
6671 1 -20.3412 18.9744 1.12283 1 1.33223e-06 
6672 1 -18.7808 20.8206 1.71768 1 2.78585e-06 
6697 1 -18.2138 18.4716 2.31325 1 4.3129e-06 
7178 1 -16.9375 19.6455 0.527991 1 6.42952e-06 
7203 1 -14.8104 19.1429 1.71889 1 2.31216e-05 
7707 1 -13.2502 20.9888 2.31316 1 8.21933e-05 
7709 1 -11.4093 19.8105 1.12212 1 0.000245691 
8215 1 -9.28042 19.3168 2.30997 1 0.000913729 
8216 1 -8.00051 20.4727 0.519991 1 0.0104 
8673 1 -5.8792 19.9967 1.69431 1 0.0984556 
8675 1 -3.88675 18.7156 0.606891 1 0.608303 
8956 1 -2.17509 20.4548 1.27239 5 2.99176 
9081 2 0.343626 19.7303 1.82408 5 5.60766 
9366 2 2.56546 19.1668 0.524715 1 0.177087 
9367 2 3.94125 20.271 2.26641 1 0.0608944 
9824 2 6.04106 19.7865 1.08462 1 0.00883509 
9826 2 7.87182 18.6073 2.27763 1 0.000881694 
10327 2 9.43347 20.46 1.68321 1 0.000350369 
10360 2 11.5616 19.9629 0.489677 1 4.72543e-05 
10866 2 13.4062 18.7889 1.67789 1 1.62087e-05 
10867 2 14.9659 20.6356 1.08201 1 6.75234e-06 
11373 2 16.811 19.4611 2.27074 1 2.09815e-06 
11376 2 18.9383 18.9577 1.08049 1 6.09894e-07 
11879 2 20.4984 20.8037 0.485312 1 3.39219e-07 
11881 2 22.3427 19.6288 1.67495 1 3.57161e-07 
12414 2 24.4699 19.1253 0.485014 1 1.44019e-07 
12385 2 25.7465 20.2998 2.26988 1 1.47864e-07 
12919 2 29.7175 18.6215 2.26993 1 2.93363e-08 
12921 2 27.8737 19.7963 1.07994 1 6.39618e-08 
13426 2 31.2775 20.4673 1.67499 1 1.21175e-08 
511 4 -63.0303 23.1705 1.12222 5 12.3904 
513 4 -64.5904 21.3246 0.527226 5 37.1712 
1015 4 -60.903 22.667 2.31219 1 5.99781e-16 
1019 4 -59.0592 21.4924 1.12222 1 8.99361e-16 
1523 4 -57.4992 23.3383 1.7172 1 7e-16 
1525 4 -55.6554 22.1636 0.527226 1 1.08931e-09 
2052 1 -51.968 23.5061 2.31221 1 1.64787e-09 
2054 1 -53.5281 21.6602 1.7172 1 2.65797e-09 
2561 1 -50.1243 22.3314 1.12223 1 3.96346e-09 
2563 1 -47.997 21.8279 2.3122 1 1.84101e-09 
3068 1 -46.7205 23.0026 0.527275 1 5.05445e-09 
3070 1 -44.5932 22.4991 1.71724 1 5.34581e-09 
3579 1 -42.7495 21.3244 0.52725 1 6.45892e-09 
3580 1 -41.1894 23.1702 1.12223 1 1.81818e-09 
4106 1 -39.0621 22.6667 2.31218 1 8.98204e-09 
4108 1 -37.2184 21.492 1.12219 1 6.47005e-09 
4613 1 -35.6584 23.3378 1.71721 1 3.18862e-09 
4615 1 -33.8147 22.163 0.527249 1 6.86619e-09 
5123 1 -31.6874 21.6596 1.71725 1 1.23659e-08 
5124 1 -30.1274 23.5054 2.31225 1 2.46807e-08 
5631 1 -28.2837 22.3306 1.12228 1 4.51286e-08 
5652 1 -26.1564 21.8272 2.31225 1 1.16026e-07 
6138 1 -24.8798 23.0016 0.527349 1 6.86525e-08 
6159 1 -22.7524 22.4983 1.71732 1 1.45733e-07 
6668 1 -19.3478 23.1696 1.12226 1 1.48935e-06 
6670 1 -20.9083 21.3236 0.527585 1 8.19046e-07 
7175 1 -17.22 22.6668 2.31227 1 6.38927e-06 
7179 1 -15.377 21.4913 1.12231 1 1.89442e-05 
7683 1 -13.8168 23.3374 1.71701 1 7.83262e-05 
7685 1 -11.9772 22.1565 0.525242 1 0.000206929 
8212 1 -8.30308 23.5047 2.29923 1 0.00510281 
8214 1 -9.85201 21.655 1.71317 1 0.00109462 
8672 1 -6.44083 22.3206 1.09804 1 0.0433209 
8674 1 -4.34955 21.882 2.2752 1 0.429357 
8955 1 -2.82691 22.8817 0.639369 5 1.56243 
9060 2 -0.244216 22.0292 2.15281 5 6.86448 
9369 2 2.0457 21.5112 1.13197 1 0.24131 
9370 2 3.61144 23.3535 0.50586 1 0.036453 
9827 2 5.48773 22.1348 1.67753 1 0.0178826 
9829 2 7.59924 21.6392 0.49241 1 0.00236946 
10330 2 8.86484 22.8072 2.27963 1 0.000890417 
10333 2 10.9923 22.3108 1.08554 1 0.000150407 
10832 2 12.8376 21.1373 2.27339 1 2.51763e-05 
10838 2 14.3978 22.9846 1.67711 1 8.2691e-06 
11377 2 16.526 22.4819 0.486343 1 2.60686e-06 
11343 2 17.8034 23.6566 2.27028 1 1.58334e-06 
11375 2 18.3709 21.3072 1.6754 1 9.85526e-07 
11882 2 19.931 23.1531 1.08022 1 5.77009e-07 
11880 2 21.7754 21.9782 2.26986 1 6.04096e-07 
12383 2 23.9026 21.4747 1.07997 1 2.29742e-07 
12388 2 25.4627 23.3205 0.485012 1 1.19589e-07 
12887 2 27.3065 22.1456 1.67495 1 7.41379e-08 
12922 2 29.4338 21.6421 0.485011 1 3.54409e-08 
13390 2 30.7102 22.8167 2.27002 1 1.45525e-08 
13427 2 32.8375 22.3132 1.08003 1 7.63672e-09 
500 4 -63.5976 25.5198 0.527226 5 18.5856 
1014 4 -61.4703 25.0164 1.7172 1 8.00001e-16 
1016 4 -59.6265 23.8417 0.527226 1 7.0016e-16 
1522 4 -58.0665 25.6876 1.12222 1 1.39936e-15 
1524 4 -55.9391 25.1842 2.31219 1 7.29631e-10 
2031 4 -54.6627 26.3589 0.527226 1 4.28758e-09 
2032 1 -54.0954 24.0095 1.12223 1 1.36606e-09 
2033 1 -52.5353 25.8554 1.71723 1 2.52281e-09 
2541 1 -50.6916 24.6807 0.527273 1 5.08228e-09 
2559 1 -48.5642 24.1773 1.71725 1 4.84491e-09 
3064 1 -47.0042 26.0232 2.31225 1 7.44078e-09 
3066 1 -45.1605 24.8485 1.12228 1 2.62555e-09 
3576 1 -43.0331 24.345 2.31223 1 1.92565e-09 
3577 1 -41.7567 25.5196 0.527277 1 2.03478e-09 
4085 1 -39.6294 25.0161 1.71722 1 3.22532e-09 
4087 1 -37.7857 23.8413 0.527224 1 4.15388e-09 
4594 1 -36.2256 25.6872 1.12223 1 3.50291e-09 
4611 1 -34.0983 25.1837 2.31223 1 4.96545e-09 
5103 1 -32.8219 26.3582 0.527254 1 8.3448e-09 
5122 1 -32.2547 24.0089 1.12225 1 1.23462e-08 
5120 1 -30.6946 25.8547 1.71723 1 1.87179e-08 
5630 1 -28.8509 24.6799 0.527275 1 2.7128e-08 
5632 1 -26.7236 24.1764 1.71723 1 6.54179e-08 
6135 1 -25.1635 26.0222 2.31212 1 1.34513e-07 
6139 1 -23.3196 24.8474 1.12222 1 1.33448e-07 
6666 1 -21.192 24.3442 2.31209 1 2.73169e-07 
6649 1 -19.915 25.5185 0.527191 1 9.47686e-07 
7174 1 -17.7871 25.0157 1.71698 1 4.61561e-06 
7176 1 -15.9434 23.8404 0.526712 1 2.06554e-05 
7682 1 -14.3831 25.687 1.12209 1 7.94087e-05 
7684 1 -12.2576 25.1855 2.31298 1 0.000345671 
8191 1 -10.9894 26.352 0.525435 1 0.000965332 
8192 1 -10.4224 24.0003 1.11789 1 0.00111007 
8193 1 -8.87675 25.8504 1.71055 1 0.00537965 
8652 1 -7.0195 24.6511 0.513167 1 0.0157933 
8670 1 -4.89852 24.198 1.67082 1 0.167896 
8952 1 -3.26765 26.1032 2.14867 5 4.48587 
8938 1 -1.16292 26.092 0.1431 5 5.92425 
9061 2 -0.926497 24.2912 1.58306 5 8.79915 
9333 2 1.51729 23.8311 1.76609 5 4.3108 
9336 2 0.84497 26.098 2.102 5 4.49789 
9339 2 3.05848 25.69 1.06998 1 0.0619195 
9789 2 4.92992 24.4838 2.26502 1 0.0210346 
9795 2 6.47251 26.3449 1.6716 1 0.00566938 
9828 2 7.03663 23.9925 1.08499 1 0.00388107 
10334 2 8.58789 25.8429 0.487341 1 0.000956128 
10332 2 10.4241 24.6599 1.6803 1 0.000303293 
10836 2 12.5527 24.1589 0.488685 1 4.91985e-05 
10837 2 13.8295 25.3336 2.27199 1 1.37454e-05 
11341 2 15.9581 24.8311 1.08129 1 3.64956e-06 
11844 2 19.3636 25.5024 1.67512 1 7.06443e-07 
11883 2 21.4912 24.9989 0.485157 1 2.91986e-07 
12346 2 22.7682 26.1733 2.26987 1 4.58194e-07 
12386 2 23.3354 23.824 1.67492 1 3.28888e-07 
12387 2 24.8955 25.6698 1.07999 1 1.67132e-07 
12890 2 26.7393 24.4949 2.26996 1 8.61008e-08 
12892 2 28.2993 26.3408 1.67501 1 5.0811e-08 
12893 2 28.8665 23.9914 1.08003 1 4.09988e-08 
13394 2 30.4266 25.8373 0.48504 1 1.87044e-08 
13396 2 32.2703 24.6625 1.67502 1 7.97887e-09 
499 4 -63.8813 28.5404 2.31219 5 18.5856 
997 4 -62.0376 27.3657 1.12222 1 8.9936e-16 
1012 4 -59.9102 26.8623 2.31219 1 1.09978e-15 
1506 4 -58.6338 28.037 0.527226 1 8.0016e-16 
1520 4 -56.5064 27.5335 1.7172 1 2.01249e-10 
2029 1 -53.1026 28.2047 1.12223 1 9.27517e-10 
2538 1 -50.9752 27.7013 2.31223 1 2.33507e-09 
2539 1 -49.6988 28.8759 0.52725 1 4.72426e-09 
2542 1 -49.1315 26.5266 1.12227 1 6.98793e-09 
3048 1 -47.5715 28.3725 1.71725 1 7.09907e-09 
3050 1 -45.7277 27.1978 0.527292 1 6.70717e-09 
3573 1 -42.0403 28.5402 2.31225 1 4.91205e-09 
3575 1 -43.6004 26.6943 1.71726 1 4.76373e-09 
4084 1 -40.1966 27.3655 1.12227 1 4.27759e-09 
4086 1 -38.0693 26.862 2.31223 1 6.04377e-09 
4593 1 -36.7929 28.0365 0.527266 1 5.21424e-09 
4595 1 -34.6656 27.533 1.71724 1 2.60992e-09 
5104 1 -31.2619 28.204 1.12224 1 8.30249e-09 
5626 1 -29.1346 27.7005 2.31218 1 2.6287e-08 
5613 1 -27.8581 28.875 0.527204 1 6.07065e-08 
5628 1 -27.2908 26.5257 1.12221 1 4.94278e-08 
6134 1 -25.7308 28.3715 1.71713 1 1.39827e-07 
6136 1 -23.8868 27.1966 0.527229 1 1.35605e-07 
6647 1 -21.7593 26.6932 1.71708 1 3.95393e-07 
6648 1 -20.1992 28.5392 2.31206 1 1.19044e-06 
7157 1 -18.3545 27.3647 1.12224 1 3.12839e-06 
7172 1 -16.2268 26.8624 2.3123 1 1.40457e-05 
7666 1 -14.9502 28.0366 0.528042 1 4.74934e-05 
7680 1 -12.8242 27.5358 1.71953 1 0.000269846 
8189 1 -9.43948 28.2011 1.12473 1 0.00389087 
8649 1 -7.33462 27.7099 2.30546 1 0.0194094 
8650 1 -6.02003 28.8402 0.545086 1 0.0260216 
8653 1 -5.4675 26.5037 1.10991 1 0.0615176 
8936 1 -3.92389 28.3653 1.79339 5 4.19765 
8950 1 -1.49226 27.8741 1.5923 5 8.4461 
9338 2 2.48593 27.9982 1.62596 1 0.162777 
9793 2 4.61235 27.5446 0.472682 1 0.0139647 
9794 2 5.89617 28.6915 2.25841 1 0.00536271 
10294 2 8.01947 28.1954 1.07971 1 0.001124 
10296 2 9.85597 27.0102 2.27416 1 0.000422012 
10796 2 11.4178 28.8583 1.67789 1 0.000102302 
10839 2 11.9847 26.5085 1.08342 1 9.05308e-05 
10840 2 13.546 28.3551 0.486968 1 2.56278e-05 
11344 2 15.3905 27.1801 1.67612 1 4.91929e-06 
11346 2 17.5188 26.677 0.485776 1 1.43667e-06 
11847 2 18.7964 27.8515 2.27005 1 6.76979e-07 
11850 2 20.924 27.3481 1.08009 1 3.32369e-07 
12352 2 24.3283 28.0191 1.67495 1 2.36416e-07 
12854 2 27.7321 28.6901 2.26996 1 6.62302e-08 
12894 2 26.4556 27.5156 0.485037 1 8.77703e-08 
13397 2 29.8594 28.1866 1.08 1 2.71006e-08 
13395 2 31.703 27.0118 2.26999 1 9.57521e-09 
497 4 -64.4486 30.8897 1.7172 5 37.1712 
996 4 -62.6049 29.715 0.527226 5 6.1952 
994 4 -61.0448 31.5609 1.12222 1 9.99361e-16 
998 4 -60.4775 29.2116 1.7172 1 1.1e-15 
1503 4 -58.9174 31.0575 2.31219 1 1.29978e-15 
1507 4 -57.0737 29.8829 1.12222 1 1.39936e-15 
2027 4 -54.9463 29.3794 2.31219 1 3.76546e-09 
2017 1 -53.6699 30.5541 0.527233 1 5.96281e-10 
2537 1 -51.5425 30.0506 1.71722 1 2.05708e-09 
3047 1 -48.1388 30.7218 1.12224 1 8.3203e-09 
3049 1 -46.0114 30.2184 2.31224 1 3.85468e-09 
3559 1 -44.735 31.393 0.527288 1 5.65456e-09 
3560 1 -44.1677 29.0437 1.12228 1 4.51608e-09 
3561 1 -42.6076 30.8895 1.71727 1 3.23503e-09 
4070 1 -40.7639 29.7148 0.527306 1 6.58062e-09 
4071 1 -39.2039 31.5607 1.12227 1 5.28508e-09 
4082 1 -38.6366 29.2113 1.71726 1 8.99551e-09 
4589 1 -37.0765 31.0572 2.31226 1 1.09563e-08 
4591 1 -35.2328 29.8824 1.12228 1 8.14322e-09 
5100 1 -33.1055 29.3789 2.31225 1 4.75396e-09 
5101 1 -31.8291 30.5534 0.527261 1 6.65395e-09 
5611 1 -29.7018 30.0498 1.7172 1 2.20893e-08 
6122 1 -26.2981 30.7208 1.12217 1 1.4373e-07 
6132 1 -24.1708 30.2173 2.31207 1 3.88982e-07 
6635 1 -22.894 31.3918 0.527395 1 2.73244e-07 
6646 1 -22.3267 29.0425 1.12221 1 4.02846e-07 
6644 1 -20.7667 30.8885 1.71738 1 7.92149e-07 
7156 1 -18.9221 29.7137 0.527727 1 2.04369e-06 
7154 1 -17.3622 31.5603 1.12355 1 5.78287e-06 
7158 1 -16.7945 29.2114 1.71797 1 7.95391e-06 
7663 1 -15.2348 31.059 2.31483 1 2.1689e-05 
7667 1 -13.3909 29.8849 1.12574 1 0.000138916 
8187 1 -11.2659 29.3877 2.32035 1 0.000859758 