ITEM: TIMESTEP
0
ITEM: NUMBER OF ATOMS
30273
ITEM: BOX BOUNDS ss pp pp
-113.608 113.613
0 31.68
0 45.8952
ITEM: ATOMS id type x y z c_cna c_csd 
20 4 -113.203 0.291901 2.29564 5 18.5856 
37 4 -113.068 2.0519 0.540827 5 18.5856 
389 4 -111.448 2.0519 2.43063 1 2.0012e-16 
424 4 -111.313 0.291901 0.675813 1 1.19561e-15 
425 4 -109.558 2.0519 0.810799 1 6.96488e-16 
892 4 -107.803 0.291901 0.945785 1 8.97366e-16 
893 4 -106.048 2.0519 1.08077 1 2.99009e-16 
1360 4 -104.294 0.291901 1.21576 1 1.15666e-09 
1361 1 -102.539 2.0519 1.35075 1 1.83248e-09 
1828 1 -100.784 0.291904 1.48577 1 2.65528e-09 
1830 1 -99.0291 2.05188 1.62077 1 1.6457e-09 
2296 1 -97.2742 0.291888 1.75578 1 4.17564e-09 
2297 1 -97.1392 2.05188 0.000962428 1 4.97475e-09 
2298 1 -95.5194 2.05187 1.89079 1 6.24661e-09 
2299 1 -95.3844 0.291853 0.135996 1 4.5134e-09 
2764 1 -93.7646 0.291829 2.02581 1 2.9326e-09 
2765 1 -93.6296 2.05183 0.271001 1 3.5501e-09 
2766 1 -92.0098 2.05182 2.16082 1 2.51844e-09 
2767 1 -91.8748 0.291802 0.406014 1 5.19897e-09 
3232 1 -90.255 0.291798 2.29586 1 7.57811e-09 
3233 1 -90.12 2.0518 0.541027 1 4.18336e-09 
3234 1 -88.5001 2.05179 2.43087 1 6.85078e-09 
3235 1 -88.3651 0.291802 0.676057 1 1.36219e-09 
3701 1 -86.6103 2.05179 0.811076 1 2.6374e-09 
3703 1 -84.8555 0.291807 0.946099 1 4.48826e-09 
4169 1 -83.1006 2.05179 1.08112 1 2.09277e-09 
4171 1 -81.3458 0.291797 1.21613 1 5.48624e-09 
4637 1 -79.591 2.0518 1.35115 1 1.23436e-08 
4639 1 -77.8361 0.29178 1.48618 1 1.49365e-09 
5105 1 -76.0813 2.05177 1.6212 1 5.49793e-09 
5107 1 -74.3264 0.291787 1.75622 1 8.33468e-09 
5141 1 -74.1914 2.0518 0.00142411 1 3.36728e-09 
5573 1 -72.5716 2.05182 1.89124 1 6.38944e-09 
5608 1 -72.4366 0.291804 0.136427 1 2.91375e-09 
5575 1 -70.8168 0.291822 2.02626 1 3.13489e-09 
5609 1 -70.6818 2.05184 0.271445 1 2.31218e-09 
6041 1 -69.0619 2.05187 2.16127 1 2.57935e-09 
6043 1 -67.3071 0.291886 2.2963 1 1.12537e-08 
6076 1 -68.9269 0.291849 0.406466 1 7.2593e-09 
6077 1 -67.1721 2.05191 0.541475 1 2.68865e-09 
6509 1 -65.5523 2.05195 2.43129 1 3.6314e-09 
6544 1 -65.4173 0.291938 0.676475 1 8.3785e-09 
6545 1 -63.6625 2.05198 0.811491 1 9.44643e-09 
7012 1 -61.9076 0.292045 0.946521 1 2.28499e-09 
7013 1 -60.1527 2.05208 1.08156 1 4.28213e-09 
7480 1 -58.3979 0.292122 1.21659 1 3.16157e-09 
7481 1 -56.6431 2.05217 1.35162 1 6.05933e-09 
7948 1 -54.8882 0.292204 1.48662 1 1.10294e-08 
7950 1 -53.1333 2.05222 1.62164 1 3.20995e-09 
8416 1 -51.3785 0.292257 1.75666 1 3.80069e-09 
8417 1 -51.2435 2.05224 0.00186385 1 6.02909e-09 
8418 1 -49.6236 2.05228 1.89168 1 4.5133e-09 
8419 1 -49.4886 0.292309 0.136876 1 1.11037e-08 
8884 1 -47.8687 0.29232 2.02669 1 6.32798e-09 
8885 1 -47.7338 2.05233 0.271882 1 9.24153e-09 
8886 1 -46.1139 2.05235 2.16173 1 5.64393e-09 
8887 1 -45.9789 0.292378 0.40691 1 6.82261e-09 
9352 1 -44.359 0.292402 2.29677 1 3.13408e-09 
9353 1 -44.224 2.05239 0.541936 1 3.87772e-09 
9354 1 -42.6042 2.05243 2.43181 1 2.30912e-09 
9355 1 -42.4692 0.29245 0.676992 1 8.04763e-09 
9821 1 -40.7143 2.05247 0.812026 1 6.21297e-09 
9823 1 -38.9595 0.292527 0.947093 1 7.16868e-09 
10289 1 -37.2046 2.05259 1.08217 1 1.14699e-08 
10291 1 -35.4499 0.292643 1.21726 1 2.22972e-08 
10757 1 -33.6951 2.0527 1.35234 1 4.39028e-08 
10759 1 -31.9404 0.292715 1.48741 1 5.30527e-08 
11225 1 -30.1855 2.05271 1.62246 1 7.75885e-08 
11227 1 -28.4309 0.292674 1.7575 1 1.4863e-07 
11261 1 -28.2958 2.05267 0.00260495 1 1.36283e-07 
11693 1 -26.6758 2.05255 1.89245 1 1.91371e-07 
11728 1 -26.5413 0.292589 0.137611 1 2.72118e-07 
11695 1 -24.9212 0.292401 2.02734 1 3.0053e-07 
11729 1 -24.7863 2.05236 0.27251 1 3.57888e-07 
12161 1 -23.166 2.05203 2.16202 1 2.81603e-07 
12163 1 -21.4112 0.291655 2.29658 1 4.42327e-07 
12196 1 -23.0317 0.292082 0.407329 1 5.51319e-07 
12197 1 -21.2765 2.05157 0.541827 1 6.55752e-07 
12629 1 -19.6558 2.051 2.43068 1 1.1486e-06 
12664 1 -19.5215 0.291084 0.676193 1 1.30927e-06 
12665 1 -17.7659 2.05023 0.810022 1 3.42334e-06 
13132 1 -16.0099 0.289528 0.943731 1 8.66818e-06 
13133 1 -14.2542 2.04852 1.07715 1 3.0743e-05 
13600 1 -12.4966 0.28758 1.21068 1 9.71825e-05 
13601 1 -10.7423 2.04732 1.34623 1 0.00021515 
14068 1 -8.98451 0.286251 1.48465 1 0.000410598 
14070 1 -7.24334 2.05145 1.6294 1 0.00148601 
14536 1 -5.49421 0.294167 1.76822 1 0.00698414 
14537 1 -5.37179 2.05682 0.0121096 1 0.00742917 
14538 1 -3.73987 2.07098 1.91785 1 0.0460765 
14539 1 -3.64384 0.3077 0.140505 1 0.0672351 
14985 1 -1.99084 0.310837 2.03354 5 1.93819 
14986 1 -1.93766 2.06135 0.239487 5 3.83869 
16790 2 -0.331506 2.01155 1.93827 5 9.50403 
22 4 -113.203 3.8119 2.29564 5 18.5856 
426 4 -111.313 3.8119 0.675813 1 1.19561e-15 
894 4 -107.803 3.8119 0.945785 1 8.97365e-16 
1362 4 -104.294 3.8119 1.21576 1 2.63611e-10 
1832 1 -100.784 3.81188 1.48575 1 5.34236e-09 
2300 1 -97.2742 3.81187 1.75578 1 1.71892e-09 
2303 1 -95.3844 3.81186 0.135982 1 5.89478e-09 
2768 1 -93.7646 3.81185 2.0258 1 4.71847e-09 
2771 1 -91.8748 3.81182 0.405996 1 5.44155e-09 
3236 1 -90.255 3.8118 2.29583 1 3.4371e-09 
3239 1 -88.3651 3.81178 0.676036 1 8.07094e-09 
3707 1 -84.8555 3.81177 0.94611 1 4.2179e-09 
4175 1 -81.3458 3.81178 1.21615 1 7.61177e-09 
4643 1 -77.8361 3.81178 1.48618 1 5.35193e-09 
5111 1 -74.3264 3.81179 1.75623 1 1.93319e-09 
5610 1 -72.4366 3.81183 0.136433 1 2.35479e-09 
5579 1 -70.8168 3.81186 2.02625 1 4.89076e-09 
6047 1 -67.3071 3.81193 2.29628 1 2.00479e-09 
6078 1 -68.9269 3.81188 0.406468 1 4.36509e-09 
6546 1 -65.4173 3.81196 0.67648 1 2.96354e-09 
7014 1 -61.9076 3.81204 0.946523 1 5.94495e-09 
7482 1 -58.3979 3.81213 1.21659 1 3.70435e-09 
7952 1 -54.8882 3.81219 1.48663 1 1.84426e-09 
8420 1 -51.3785 3.81223 1.75665 1 1.99983e-09 
8423 1 -49.4886 3.81227 0.136854 1 7.9731e-09 
8888 1 -47.8687 3.81229 2.0267 1 4.00923e-09 
8891 1 -45.9789 3.81233 0.406892 1 6.42344e-09 
9356 1 -44.359 3.81236 2.29676 1 3.02684e-09 
9359 1 -42.4692 3.81241 0.676979 1 1.86301e-09 
9827 1 -38.9594 3.81252 0.947087 1 1.09626e-08 
10295 1 -35.4498 3.81263 1.21725 1 1.79001e-08 
10763 1 -31.9401 3.8127 1.4874 1 4.89709e-08 
11231 1 -28.4305 3.81263 1.75748 1 1.12146e-07 
11730 1 -26.5408 3.81253 0.137585 1 1.74457e-07 
11699 1 -24.9207 3.81234 2.0273 1 2.35306e-07 
12167 1 -21.4107 3.81165 2.29644 1 4.91352e-07 
12198 1 -23.0311 3.81204 0.407231 1 4.19404e-07 
12666 1 -19.5212 3.81109 0.676029 1 1.26354e-06 
13134 1 -16.0106 3.80968 0.943626 1 1.26958e-05 
13602 1 -12.4998 3.80862 1.21158 1 6.05249e-05 
14072 1 -8.99417 3.81124 1.485 1 0.000198457 
14540 1 -5.49377 3.81508 1.77423 1 0.0090436 
14543 1 -3.63459 3.81086 0.132764 1 0.0712254 
14988 1 -1.93738 3.8141 2.00297 5 1.81042 
24 4 -113.203 7.3319 2.29564 5 18.5856 
38 4 -113.068 5.5719 0.540827 5 18.5856 
393 4 -111.448 5.5719 2.43063 1 2.0012e-16 
428 4 -111.313 7.3319 0.675813 1 1.19561e-15 
427 4 -109.558 5.5719 0.810799 1 6.96488e-16 
895 4 -106.048 5.5719 1.08077 1 2.99009e-16 
896 4 -107.803 7.3319 0.945785 1 8.97365e-16 
1364 4 -104.294 7.3319 1.21576 1 6.80601e-10 
1363 1 -102.539 5.5719 1.35074 1 3.00537e-09 
1836 1 -100.784 7.33191 1.48575 1 3.14749e-09 
1834 1 -99.0291 5.57188 1.62075 1 3.74139e-09 
2301 1 -97.1393 5.57186 0.00094893 1 1.288e-08 
2304 1 -97.2743 7.33186 1.75577 1 4.76526e-09 
2302 1 -95.5194 5.57185 1.89078 1 4.18087e-09 
2307 1 -95.3844 7.33184 0.135973 1 3.7285e-09 
2769 1 -93.6296 5.57183 0.27098 1 5.19074e-09 
2772 1 -93.7646 7.33182 2.0258 1 5.7141e-09 
2770 1 -92.0098 5.57181 2.16083 1 7.14393e-09 
2775 1 -91.8748 7.3318 0.40601 1 7.05055e-09 
3237 1 -90.12 5.5718 0.541024 1 4.74094e-09 
3238 1 -88.5001 5.57179 2.43084 1 6.52168e-09 
3240 1 -90.2549 7.3318 2.29583 1 2.85811e-09 
3243 1 -88.3651 7.3318 0.676043 1 2.74681e-09 
3705 1 -86.6103 5.57177 0.811073 1 5.17252e-09 
3711 1 -84.8555 7.33177 0.946117 1 3.16847e-09 
4173 1 -83.1007 5.57176 1.08115 1 5.23445e-09 
4179 1 -81.3458 7.33176 1.21618 1 5.18918e-09 
4641 1 -79.591 5.57176 1.35118 1 2.03834e-09 
4647 1 -77.8362 7.33176 1.48621 1 2.40551e-09 
5109 1 -76.0813 5.57178 1.62121 1 2.46912e-09 
5115 1 -74.3265 7.33178 1.75625 1 4.82184e-09 
5143 1 -74.1915 5.57179 0.00142698 1 4.65491e-09 
5577 1 -72.5716 5.57182 1.89125 1 6.34057e-09 
5612 1 -72.4366 7.33182 0.136433 1 4.47194e-09 
5583 1 -70.8168 7.33187 2.02624 1 4.70824e-09 
5611 1 -70.6818 5.57187 0.271437 1 4.43936e-09 
6045 1 -69.0619 5.57192 2.16126 1 4.52969e-09 
6051 1 -67.3071 7.33196 2.29627 1 4.27829e-09 
6079 1 -67.1721 5.57194 0.541468 1 2.45653e-09 
6080 1 -68.9269 7.33191 0.406448 1 2.86349e-09 
6513 1 -65.5523 5.57198 2.43129 1 1.75619e-09 
6548 1 -65.4172 7.33199 0.676488 1 4.5096e-09 
6547 1 -63.6624 5.57201 0.8115 1 3.6337e-09 
7015 1 -60.1527 5.5721 1.08155 1 2.14037e-09 
7016 1 -61.9076 7.33207 0.946525 1 3.76122e-09 
7484 1 -58.3979 7.33213 1.21659 1 4.12646e-09 
7483 1 -56.643 5.57217 1.35162 1 7.01603e-09 
7956 1 -54.8882 7.33219 1.48661 1 2.20275e-09 
7954 1 -53.1333 5.5722 1.62163 1 2.23585e-09 
8421 1 -51.2435 5.57223 0.00182967 1 3.7265e-09 
8422 1 -49.6236 5.57224 1.89167 1 2.5739e-09 
8424 1 -51.3785 7.33221 1.75665 1 2.7973e-09 
8427 1 -49.4886 7.33223 0.136839 1 8.81035e-09 
8889 1 -47.7338 5.57227 0.271867 1 3.24568e-09 
8892 1 -47.8687 7.33224 2.02667 1 8.9609e-09 
8890 1 -46.1139 5.5723 2.16172 1 2.80813e-09 
8895 1 -45.9789 7.33228 0.406891 1 2.48553e-09 
9357 1 -44.224 5.57234 0.541921 1 6.4225e-09 
9360 1 -44.359 7.33231 2.29675 1 5.93748e-09 
9358 1 -42.6042 5.57239 2.4318 1 3.12152e-09 
9363 1 -42.4692 7.33236 0.676963 1 7.20554e-09 
9825 1 -40.7143 5.57243 0.81202 1 3.44919e-09 
9831 1 -38.9594 7.33244 0.947069 1 4.05783e-09 
10293 1 -37.2046 5.57254 1.08214 1 1.06142e-08 
10299 1 -35.4497 7.33253 1.21723 1 1.1773e-08 
10761 1 -33.6949 5.57263 1.35233 1 2.70429e-08 
10767 1 -31.94 7.33261 1.48739 1 4.74588e-08 
11229 1 -30.1852 5.57266 1.62246 1 8.35135e-08 
11235 1 -28.4301 7.33259 1.75748 1 1.10626e-07 
11263 1 -28.2954 5.57261 0.00260383 1 1.04704e-07 
11697 1 -26.6754 5.57253 1.89244 1 1.79343e-07 
11732 1 -26.5405 7.33253 0.137589 1 1.93454e-07 
11703 1 -24.9203 7.33246 2.02727 1 2.59294e-07 
11731 1 -24.7858 5.57237 0.272473 1 2.97193e-07 
12165 1 -23.1655 5.57215 2.16195 1 3.23406e-07 
12171 1 -21.4105 7.33216 2.2964 1 7.51888e-07 
12199 1 -21.276 5.57185 0.541722 1 6.28752e-07 
12200 1 -23.0308 7.33234 0.407194 1 4.36786e-07 
12633 1 -19.6557 5.57144 2.43059 1 1.74887e-06 
12668 1 -19.5211 7.33196 0.675985 1 1.49931e-06 
12667 1 -17.7661 5.57093 0.809964 1 4.0818e-06 
13136 1 -16.0117 7.33152 0.943874 1 9.08073e-06 
13135 1 -14.2562 5.57004 1.07752 1 2.92426e-05 
13603 1 -10.7483 5.57122 1.34809 1 3.94753e-05 
13604 1 -12.5032 7.33191 1.21235 1 3.752e-05 
14076 1 -8.99482 7.33284 1.48777 1 0.000214178 
14074 1 -7.24153 5.57391 1.62686 1 0.00046844 
14541 1 -5.35378 5.57339 0.00407366 1 0.00541435 
14544 1 -5.49676 7.33532 1.76554 1 0.0050538 
14542 1 -3.75257 5.56406 1.9296 1 0.0937607 
14547 1 -3.64137 7.34154 0.134716 1 0.0594775 
14989 1 -2.00271 5.577 0.267849 5 5.96052 
14990 3 -0.330324 5.61945 1.91498 5 8.98315 
14991 1 -1.98762 7.33722 2.01815 5 1.90789 
39 4 -113.068 9.0919 0.540827 5 18.5856 
397 4 -111.448 9.0919 2.43063 1 2.00122e-16 
429 4 -109.558 9.0919 0.810799 1 6.9649e-16 
897 4 -106.048 9.0919 1.08077 1 2.99011e-16 
1365 1 -102.539 9.09191 1.35076 1 1.31485e-09 
1838 1 -99.0291 9.0919 1.62076 1 3.87504e-09 
2305 1 -97.1392 9.09187 0.000966425 1 4.02304e-09 
2306 1 -95.5194 9.09184 1.89079 1 4.77778e-09 
2773 1 -93.6296 9.09183 0.270995 1 4.8435e-09 
2774 1 -92.0098 9.09181 2.16082 1 6.52659e-09 
3241 1 -90.12 9.09181 0.541027 1 4.09697e-09 
3242 1 -88.5001 9.09181 2.43085 1 6.54014e-09 
3709 1 -86.6103 9.0918 0.811068 1 8.43361e-09 
4177 1 -83.1007 9.09176 1.08117 1 1.22433e-08 
4645 1 -79.591 9.09176 1.3512 1 2.14749e-09 
5113 1 -76.0813 9.09175 1.62123 1 7.011e-09 
5145 1 -74.1915 9.09178 0.00142103 1 2.86977e-09 
5581 1 -72.5717 9.09182 1.89124 1 5.29989e-09 
5613 1 -70.6818 9.09185 0.271429 1 2.14037e-09 
6049 1 -69.0619 9.09191 2.16125 1 1.95761e-09 
6081 1 -67.1721 9.09194 0.541455 1 4.05424e-09 
6517 1 -65.5522 9.092 2.43129 1 6.35398e-09 
6549 1 -63.6624 9.09204 0.811512 1 3.0146e-09 
7017 1 -60.1527 9.09211 1.08156 1 3.09765e-09 
7485 1 -56.643 9.09217 1.35159 1 1.54778e-09 
7958 1 -53.1333 9.0922 1.62162 1 1.38166e-09 
8425 1 -51.2435 9.09222 0.00182888 1 1.22252e-09 
8426 1 -49.6236 9.09221 1.89166 1 7.19775e-09 
8893 1 -47.7338 9.09224 0.271865 1 3.7115e-09 
8894 1 -46.1139 9.09227 2.16172 1 1.95631e-09 
9361 1 -44.224 9.09231 0.541929 1 3.87699e-09 
9362 1 -42.6042 9.09232 2.4318 1 3.40897e-09 
9829 1 -40.7143 9.09235 0.812011 1 4.53359e-09 
10297 1 -37.2046 9.09242 1.08213 1 3.93569e-09 
10765 1 -33.6948 9.09251 1.3523 1 1.80987e-08 
11233 1 -30.185 9.09255 1.62246 1 7.43253e-08 
11265 1 -28.2953 9.09255 0.00262377 1 1.37174e-07 
11701 1 -26.6752 9.09257 1.89245 1 2.24446e-07 
11733 1 -24.7856 9.09258 0.272477 1 3.15664e-07 
12169 1 -23.1653 9.09258 2.16196 1 4.80938e-07 
12201 1 -21.276 9.0926 0.541729 1 7.14466e-07 
12637 1 -19.6559 9.09259 2.43064 1 1.67449e-06 
12669 1 -17.7666 9.09267 0.810068 1 3.28628e-06 
13137 1 -14.2578 9.09311 1.0781 1 1.34489e-05 
13605 1 -10.749 9.0934 1.34874 1 7.33202e-05 
14078 1 -7.24679 9.0944 1.631 1 0.00136546 
14545 1 -5.37331 9.09762 0.0132348 1 0.00578583 
14546 1 -3.73881 9.10749 1.91326 1 0.0431797 
16782 2 -0.334425 9.05475 1.92567 5 9.41482 
14992 1 -1.94141 9.09379 0.232696 5 3.9486 
26 4 -113.203 10.8519 2.29564 5 18.5856 
40 4 -113.068 12.6119 0.540827 5 18.5856 
401 4 -111.448 12.6119 2.43063 1 2.0012e-16 
430 4 -111.313 10.8519 0.675813 1 1.19561e-15 
431 4 -109.558 12.6119 0.810799 1 6.96488e-16 
898 4 -107.803 10.8519 0.945785 1 8.97367e-16 
899 4 -106.048 12.6119 1.08077 1 2.99009e-16 
1366 4 -104.294 10.8519 1.21576 1 1.96548e-09 
1367 1 -102.539 12.6119 1.35076 1 1.05077e-09 
1840 1 -100.784 10.8519 1.48575 1 5.7062e-09 
1842 1 -99.0291 12.6119 1.62078 1 6.94925e-10 
2308 1 -97.2742 10.8519 1.7558 1 5.00974e-09 
2309 1 -97.1392 12.6119 0.000986211 1 1.88607e-09 
2310 1 -95.5194 12.6119 1.89081 1 6.15127e-09 
2311 1 -95.3844 10.8519 0.135993 1 2.84148e-09 
2776 1 -93.7646 10.8518 2.0258 1 4.80536e-09 
2777 1 -93.6296 12.6119 0.271009 1 8.59133e-09 
2778 1 -92.0098 12.6119 2.16084 1 7.83089e-09 
2779 1 -91.8748 10.8518 0.40602 1 3.7386e-09 
3244 1 -90.255 10.8518 2.29583 1 6.33191e-09 
3245 1 -90.12 12.6118 0.541054 1 9.8894e-09 
3246 1 -88.5001 12.6118 2.43087 1 3.97191e-09 
3247 1 -88.3651 10.8518 0.676046 1 4.79729e-09 
3713 1 -86.6103 12.6118 0.811076 1 7.05719e-09 
3715 1 -84.8555 10.8518 0.946106 1 6.7605e-09 
4181 1 -83.1007 12.6118 1.08116 1 9.18549e-09 
4183 1 -81.3458 10.8518 1.21619 1 8.2767e-09 
4649 1 -79.591 12.6118 1.35119 1 3.23691e-09 
4651 1 -77.8362 10.8518 1.48622 1 2.31604e-09 
5117 1 -76.0814 12.6118 1.62124 1 3.66142e-09 
5119 1 -74.3265 10.8518 1.75624 1 5.71703e-09 
5147 1 -74.1915 12.6118 0.00141304 1 6.2384e-09 
5585 1 -72.5717 12.6118 1.89123 1 3.2376e-09 
5614 1 -72.4367 10.8518 0.136423 1 4.25198e-09 
5587 1 -70.8168 10.8518 2.02623 1 2.06347e-09 
5615 1 -70.6818 12.6118 0.271417 1 3.13376e-09 
6053 1 -69.062 12.6119 2.16124 1 4.02477e-09 
6055 1 -67.3071 10.8519 2.29627 1 3.22322e-09 
6082 1 -68.927 10.8519 0.40643 1 4.33655e-09 
6083 1 -67.1721 12.6119 0.541467 1 1.26491e-09 
6521 1 -65.5523 12.612 2.43132 1 5.51144e-09 
6550 1 -65.4173 10.852 0.676502 1 3.15704e-09 
6551 1 -63.6624 12.612 0.811531 1 5.78234e-09 
7018 1 -61.9076 10.8521 0.94653 1 1.07816e-08 
7019 1 -60.1527 12.6121 1.08155 1 6.74864e-09 
7486 1 -58.3979 10.8522 1.21658 1 5.37517e-09 
7487 1 -56.643 12.6122 1.35159 1 4.42633e-09 
7960 1 -54.8881 10.8522 1.48659 1 4.57704e-09 
7962 1 -53.1333 12.6122 1.62162 1 3.40269e-09 
8428 1 -51.3784 10.8522 1.75665 1 6.42475e-09 
8429 1 -51.2434 12.6122 0.00183342 1 2.64512e-09 
8430 1 -49.6236 12.6122 1.89165 1 6.5541e-09 
8431 1 -49.4886 10.8522 0.136852 1 2.72624e-09 
8896 1 -47.8687 10.8522 2.02668 1 4.74088e-09 
8897 1 -47.7337 12.6122 0.271868 1 2.98469e-09 
8898 1 -46.1139 12.6122 2.16172 1 7.48841e-09 
8899 1 -45.9789 10.8523 0.406897 1 4.48012e-09 
9364 1 -44.359 10.8523 2.29677 1 4.90159e-09 
9365 1 -44.224 12.6123 0.541934 1 6.81517e-09 
9366 1 -42.6042 12.6123 2.43183 1 6.98421e-09 
9367 1 -42.4692 10.8523 0.676974 1 4.7994e-09 
9833 1 -40.7143 12.6123 0.812036 1 6.83554e-09 
9835 1 -38.9594 10.8523 0.947068 1 4.14756e-09 
10301 1 -37.2046 12.6123 1.08213 1 6.81386e-09 
10303 1 -35.4497 10.8524 1.21721 1 4.8758e-09 
10769 1 -33.6949 12.6123 1.3523 1 1.87274e-08 
10771 1 -31.9399 10.8525 1.48738 1 3.47173e-08 
11237 1 -30.1851 12.6124 1.62245 1 7.2103e-08 
11239 1 -28.4301 10.8525 1.75749 1 1.46163e-07 
11267 1 -28.2954 12.6125 0.00261699 1 1.23625e-07 
11705 1 -26.6753 12.6126 1.89246 1 1.83147e-07 
11734 1 -26.5405 10.8526 0.137608 1 2.09199e-07 
11707 1 -24.9203 10.8527 2.02731 1 3.15592e-07 
11735 1 -24.7858 12.6128 0.272525 1 3.18987e-07 
12173 1 -23.1656 12.6131 2.16205 1 3.81764e-07 
12175 1 -21.4106 10.853 2.29648 1 7.12922e-07 
12202 1 -23.0308 10.8529 0.407235 1 4.62929e-07 
12203 1 -21.2762 12.6135 0.541841 1 5.76082e-07 
12641 1 -19.6561 12.6139 2.4308 1 1.42086e-06 
12670 1 -19.5214 10.8533 0.676073 1 1.17341e-06 
12671 1 -17.7668 12.6145 0.810209 1 3.1079e-06 
13138 1 -16.0122 10.854 0.944097 1 7.39583e-06 
13139 1 -14.2574 12.6155 1.07824 1 1.74761e-05 
13606 1 -12.5032 10.8547 1.21312 1 2.05571e-05 
13607 1 -10.7487 12.6166 1.34958 1 3.75599e-05 
14080 1 -8.99691 10.8552 1.48734 1 0.000117209 
14082 1 -7.24073 12.615 1.62924 1 0.000407285 
14548 1 -5.49259 10.8544 1.7756 1 0.0091906 
14549 1 -5.35273 12.612 0.00806879 1 0.00569092 
14550 1 -3.74627 12.6012 1.93503 1 0.0997838 
14551 1 -3.63377 10.8511 0.134152 1 0.0681449 
16774 2 -0.324122 12.6635 1.92635 5 8.98684 
14994 1 -1.93495 10.8573 2.00233 5 1.82042 
14995 1 -1.99704 12.6194 0.269829 5 5.96135 
28 4 -113.203 14.3719 2.29564 5 18.5856 
432 4 -111.313 14.3719 0.675813 1 1.19561e-15 
900 4 -107.803 14.3719 0.945785 1 8.97365e-16 
1368 4 -104.294 14.3719 1.21576 1 2.40918e-09 
1844 1 -100.784 14.3719 1.48577 1 1.30991e-09 
2312 1 -97.2742 14.3719 1.7558 1 1.62223e-09 
2315 1 -95.3844 14.3719 0.136012 1 6.09698e-09 
2780 1 -93.7646 14.3719 2.02585 1 1.00911e-08 
2783 1 -91.8748 14.3719 0.406037 1 7.68734e-09 
3248 1 -90.2549 14.3718 2.29587 1 5.64749e-09 
3251 1 -88.3651 14.3718 0.676062 1 6.56021e-09 
3719 1 -84.8555 14.3718 0.946107 1 4.07789e-09 
4187 1 -81.3458 14.3718 1.21617 1 2.66261e-09 
4655 1 -77.8362 14.3717 1.4862 1 6.49858e-09 
5123 1 -74.3265 14.3718 1.75624 1 7.77322e-09 
5616 1 -72.4367 14.3718 0.136422 1 2.72489e-09 
5591 1 -70.8168 14.3718 2.02623 1 3.27384e-09 
6059 1 -67.3071 14.3719 2.29629 1 5.54833e-09 
6084 1 -68.927 14.3719 0.406439 1 5.16868e-09 
6552 1 -65.4173 14.372 0.676526 1 1.30608e-08 
7020 1 -61.9076 14.3721 0.946534 1 2.42755e-09 
7488 1 -58.3979 14.3722 1.21657 1 8.44326e-09 
7964 1 -54.8881 14.3722 1.4866 1 3.12861e-09 
8432 1 -51.3784 14.3722 1.75663 1 3.22128e-09 
8435 1 -49.4886 14.3722 0.136846 1 3.81658e-09 
8900 1 -47.8687 14.3723 2.02668 1 4.03135e-09 
8903 1 -45.9789 14.3723 0.406896 1 6.45977e-09 
9368 1 -44.359 14.3722 2.29677 1 2.55071e-09 
9371 1 -42.4692 14.3722 0.676996 1 4.96486e-09 
9839 1 -38.9595 14.3722 0.947079 1 1.0653e-08 
10307 1 -35.4498 14.3723 1.21722 1 1.42351e-08 
10775 1 -31.9401 14.3723 1.48738 1 4.26822e-08 
11243 1 -28.4304 14.3725 1.7575 1 1.29166e-07 
11736 1 -26.5408 14.3727 0.137621 1 1.75986e-07 
11711 1 -24.9207 14.3729 2.02737 1 2.42825e-07 
12179 1 -21.411 14.3738 2.29663 1 5.11897e-07 
12204 1 -23.0313 14.3733 0.407331 1 3.94447e-07 
12672 1 -19.5216 14.3744 0.676225 1 1.13556e-06 
13140 1 -16.0118 14.3758 0.944136 1 9.63159e-06 
13608 1 -12.5021 14.377 1.21284 1 3.89239e-05 
14084 1 -8.99144 14.3773 1.48912 1 0.000211515 
14552 1 -5.49278 14.3743 1.76922 1 0.00520886 
14555 1 -3.63963 14.3762 0.138124 1 0.0652352 
14997 1 -1.98418 14.3688 2.022 5 1.89843 
30 4 -113.203 17.8919 2.29564 5 18.5856 
41 4 -113.068 16.1319 0.540827 5 18.5856 
405 4 -111.448 16.1319 2.43063 1 2.0012e-16 
434 4 -111.313 17.8919 0.675813 1 1.19561e-15 
433 4 -109.558 16.1319 0.810799 1 6.96488e-16 
901 4 -106.048 16.1319 1.08077 1 2.99009e-16 
902 4 -107.803 17.8919 0.945785 1 8.97365e-16 
1370 4 -104.294 17.8919 1.21576 1 1.9851e-09 
1369 1 -102.539 16.1319 1.35077 1 3.38651e-09 
1848 1 -100.784 17.8919 1.48576 1 2.04968e-09 
1846 1 -99.029 16.1319 1.62078 1 2.56652e-09 
2313 1 -97.1392 16.1319 0.000981838 1 1.1458e-09 
2316 1 -97.2742 17.8919 1.75579 1 3.36593e-09 
2314 1 -95.5194 16.1319 1.89082 1 2.61197e-09 
2319 1 -95.3844 17.8919 0.135995 1 3.92968e-09 
2781 1 -93.6296 16.1319 0.271028 1 3.36172e-09 
2784 1 -93.7646 17.8918 2.02585 1 7.62644e-09 
2782 1 -92.0097 16.1319 2.16087 1 1.20847e-08 
2787 1 -91.8748 17.8918 0.406025 1 2.44336e-09 
3249 1 -90.1199 16.1319 0.541053 1 1.72228e-08 
3250 1 -88.5001 16.1318 2.43089 1 6.91857e-09 
3252 1 -90.2549 17.8918 2.29586 1 8.01382e-09 
3255 1 -88.3651 17.8919 0.67605 1 1.40942e-08 
3717 1 -86.6103 16.1318 0.811073 1 4.10041e-09 
3723 1 -84.8555 17.8918 0.946097 1 5.33058e-09 
4185 1 -83.1007 16.1318 1.08113 1 4.167e-09 
4191 1 -81.3458 17.8918 1.21616 1 2.08895e-09 
4653 1 -79.591 16.1318 1.35117 1 4.54077e-09 
4659 1 -77.8362 17.8917 1.48619 1 8.45128e-09 
5121 1 -76.0814 16.1317 1.62122 1 5.53643e-09 
5127 1 -74.3265 17.8918 1.75623 1 4.36722e-09 
5149 1 -74.1915 16.1318 0.00141904 1 4.29531e-09 
5589 1 -72.5717 16.1318 1.89123 1 8.2576e-09 
5618 1 -72.4367 17.8918 0.136431 1 3.97007e-09 
5595 1 -70.8168 17.8918 2.02625 1 2.92676e-09 
5617 1 -70.6818 16.1318 0.271425 1 6.91483e-09 
6057 1 -69.062 16.1319 2.16127 1 4.07223e-09 
6063 1 -67.3071 17.8919 2.2963 1 6.80087e-09 
6085 1 -67.1721 16.1319 0.54149 1 3.92168e-09 
6086 1 -68.927 17.8919 0.40647 1 7.22836e-09 
6525 1 -65.5523 16.132 2.43133 1 8.6617e-09 
6554 1 -65.4173 17.892 0.676524 1 1.01798e-08 
6553 1 -63.6624 16.132 0.811533 1 1.74555e-09 
7021 1 -60.1527 16.1322 1.08155 1 8.23159e-09 
7022 1 -61.9076 17.8921 0.946548 1 6.73237e-09 
7490 1 -58.3979 17.8922 1.21657 1 1.79903e-09 
7489 1 -56.643 16.1322 1.35159 1 8.12003e-09 
7968 1 -54.8881 17.8922 1.4866 1 3.80528e-09 
7966 1 -53.1333 16.1322 1.6216 1 3.52374e-09 
8433 1 -51.2434 16.1322 0.00182621 1 2.56932e-09 
8434 1 -49.6235 16.1322 1.89165 1 2.99286e-09 
8436 1 -51.3784 17.8922 1.75663 1 6.31909e-09 
8439 1 -49.4886 17.8922 0.136858 1 3.49685e-09 
8901 1 -47.7337 16.1323 0.271869 1 5.8704e-09 
8904 1 -47.8687 17.8922 2.02669 1 7.76442e-09 
8902 1 -46.1138 16.1322 2.16171 1 1.2409e-08 
8907 1 -45.9788 17.8923 0.406927 1 6.11661e-09 
9369 1 -44.224 16.1322 0.541946 1 1.17512e-08 
9372 1 -44.359 17.8922 2.29677 1 1.50683e-08 
9370 1 -42.6042 16.1322 2.43183 1 3.49026e-09 
9375 1 -42.4691 17.8922 0.676987 1 1.61871e-08 
9837 1 -40.7143 16.1322 0.812043 1 7.25025e-09 
9843 1 -38.9595 17.8922 0.947098 1 6.56706e-09 
10305 1 -37.2047 16.1322 1.08214 1 1.25066e-08 
10311 1 -35.4499 17.8922 1.21722 1 1.43832e-08 
10773 1 -33.695 16.1322 1.3523 1 2.99715e-08 
10779 1 -31.9404 17.8923 1.48738 1 6.57554e-08 
11241 1 -30.1854 16.1324 1.62245 1 8.37992e-08 
11247 1 -28.4308 17.8925 1.75751 1 1.27343e-07 
11269 1 -28.2958 16.1325 0.00263038 1 1.29699e-07 
11709 1 -26.6758 16.1327 1.8925 1 1.84473e-07 
11738 1 -26.5413 17.8927 0.137648 1 1.95135e-07 
11715 1 -24.9213 17.893 2.02743 1 2.47835e-07 
11737 1 -24.7863 16.133 0.272569 1 2.74036e-07 
12177 1 -23.1661 16.1334 2.16216 1 2.90051e-07 
12183 1 -21.4114 17.8939 2.29675 1 3.84422e-07 
12205 1 -21.2767 16.134 0.541965 1 5.77993e-07 
12206 1 -23.0318 17.8934 0.407411 1 4.6813e-07 
12645 1 -19.6563 16.1346 2.43095 1 1.22325e-06 
12674 1 -19.5219 17.8946 0.676362 1 1.142e-06 
12673 1 -17.7667 16.1354 0.81033 1 3.35196e-06 
13142 1 -16.0111 17.8963 0.944092 1 1.15645e-05 
13141 1 -14.2562 16.137 1.07792 1 2.92318e-05 
13609 1 -10.745 16.1375 1.34876 1 7.58105e-05 
13610 1 -12.4991 17.8978 1.21193 1 7.04898e-05 
14088 1 -8.99044 17.8985 1.48743 1 0.000149763 
14086 1 -7.23927 16.1398 1.63317 1 0.00141473 
14553 1 -5.36561 16.1426 0.0206135 1 0.00592355 
14556 1 -5.47958 17.9058 1.78341 1 0.0125273 
14554 1 -3.73854 16.149 1.91973 1 0.0458058 
14559 1 -3.62262 17.9063 0.149604 1 0.0610741 
14998 1 -1.95013 16.1236 0.242982 5 5.76685 
14999 3 -0.338184 16.1065 1.90842 5 9.20003 
15000 1 -1.93954 17.9183 2.03216 5 2.19155 
42 4 -113.068 19.6519 0.540827 5 18.5856 
409 4 -111.448 19.6519 2.43063 1 2.0012e-16 
435 4 -109.558 19.6519 0.810799 1 6.96488e-16 
903 4 -106.048 19.6519 1.08077 1 2.99009e-16 
1371 1 -102.539 19.6519 1.35076 1 3.66659e-09 
1850 1 -99.0291 19.6519 1.62077 1 1.24745e-09 
2317 1 -97.1393 19.6519 0.000956017 1 3.98295e-09 
2318 1 -95.5194 19.6518 1.89079 1 2.47375e-09 
2785 1 -93.6296 19.6518 0.270995 1 2.40068e-09 
2786 1 -92.0097 19.6518 2.16084 1 4.56194e-09 
3253 1 -90.1199 19.6518 0.541022 1 1.88313e-09 
3254 1 -88.5001 19.6518 2.43088 1 5.09918e-09 
3721 1 -86.6103 19.6518 0.811062 1 1.29373e-08 
4189 1 -83.1006 19.6518 1.08114 1 4.99852e-09 
4657 1 -79.591 19.6518 1.35117 1 2.93942e-09 
5125 1 -76.0813 19.6517 1.62121 1 7.22127e-09 
5151 1 -74.1915 19.6518 0.00141393 1 3.2563e-09 
5593 1 -72.5717 19.6518 1.89124 1 3.0675e-09 
5619 1 -70.6818 19.6518 0.271447 1 2.77824e-09 
6061 1 -69.062 19.6519 2.16127 1 2.35572e-09 
6087 1 -67.1721 19.6519 0.5415 1 8.92957e-09 
6529 1 -65.5523 19.652 2.43134 1 7.29644e-09 
6555 1 -63.6625 19.6521 0.811553 1 1.86979e-08 
7023 1 -60.1527 19.6521 1.08156 1 4.29063e-09 
7491 1 -56.643 19.6522 1.35159 1 2.15944e-09 
7970 1 -53.1333 19.6522 1.6216 1 8.90129e-09 
8437 1 -51.2434 19.6522 0.00182348 1 5.67728e-09 
8438 1 -49.6235 19.6522 1.89165 1 9.78196e-09 
8905 1 -47.7337 19.6523 0.271902 1 3.24575e-09 
8906 1 -46.1138 19.6523 2.16175 1 6.22971e-09 
9373 1 -44.224 19.6523 0.541963 1 4.29012e-09 
9374 1 -42.6041 19.6522 2.43182 1 4.38328e-09 
9841 1 -40.7143 19.6522 0.812043 1 4.80057e-09 
10309 1 -37.2047 19.6522 1.08215 1 1.023e-08 
10777 1 -33.6952 19.6523 1.3523 1 1.89854e-08 
11245 1 -30.1858 19.6524 1.62246 1 7.97231e-08 
11271 1 -28.2962 19.6525 0.00263276 1 1.36708e-07 
11713 1 -26.6763 19.6527 1.89253 1 2.5509e-07 
11739 1 -24.7869 19.653 0.272621 1 4.08353e-07 
12181 1 -23.1666 19.6533 2.16223 1 3.89571e-07 
12207 1 -21.2772 19.6538 0.54207 1 8.73636e-07 
12649 1 -19.6565 19.6544 2.43109 1 8.59996e-07 
12675 1 -17.7667 19.6551 0.810422 1 3.24954e-06 
13143 1 -14.2543 19.6569 1.07764 1 3.02873e-05 
13611 1 -10.7421 19.6588 1.34673 1 0.000177924 
14090 1 -7.23264 19.6567 1.63221 1 0.00124009 
14557 1 -5.34102 19.6538 0.0156864 1 0.0114218 
14558 1 -3.70326 19.6532 1.96814 1 0.29806 
16770 2 -0.312778 19.6381 1.88856 5 7.40497 
15001 1 -1.98485 19.7105 0.250604 5 8.29846 
32 4 -113.203 21.4119 2.29564 5 18.5856 
43 4 -113.068 23.1719 0.540827 5 18.5856 
413 4 -111.448 23.1719 2.43063 1 2.0012e-16 
436 4 -111.313 21.4119 0.675813 1 1.19561e-15 
437 4 -109.558 23.1719 0.810799 1 6.96488e-16 
904 4 -107.803 21.4119 0.945785 1 8.97365e-16 
905 4 -106.048 23.1719 1.08077 1 2.99009e-16 
1372 4 -104.294 21.4119 1.21576 1 1.23023e-09 
1373 1 -102.539 23.1719 1.35075 1 5.73126e-09 
1852 1 -100.784 21.4119 1.48574 1 5.13759e-09 
1854 1 -99.029 23.1719 1.62075 1 3.93289e-09 
2320 1 -97.2742 21.4118 1.75576 1 1.6292e-09 
2321 1 -97.1392 23.1718 0.000939387 1 5.3224e-09 
2322 1 -95.5194 23.1718 1.89076 1 1.45446e-08 
2323 1 -95.3844 21.4118 0.135963 1 5.70363e-09 
2788 1 -93.7646 21.4118 2.0258 1 6.87852e-09 
2789 1 -93.6296 23.1718 0.270973 1 3.60109e-09 
2790 1 -92.0098 23.1718 2.16082 1 2.84717e-09 
2791 1 -91.8748 21.4118 0.406 1 2.3402e-09 
3256 1 -90.2549 21.4118 2.29585 1 2.45206e-09 
3257 1 -90.12 23.1718 0.541025 1 2.61028e-09 
3258 1 -88.5001 23.1718 2.43088 1 6.78038e-09 
3259 1 -88.3651 21.4118 0.676039 1 2.08478e-09 
3725 1 -86.6103 23.1718 0.811064 1 6.63625e-09 
3727 1 -84.8554 21.4118 0.946102 1 4.82732e-09 
4193 1 -83.1006 23.1718 1.08113 1 3.36349e-09 
4195 1 -81.3458 21.4118 1.21615 1 3.16673e-09 
4661 1 -79.591 23.1718 1.35117 1 5.26212e-09 
4663 1 -77.8362 21.4118 1.48619 1 2.9227e-09 
5129 1 -76.0813 23.1718 1.62123 1 3.27964e-09 
5131 1 -74.3265 21.4118 1.75624 1 3.36475e-09 
5153 1 -74.1915 23.1718 0.0014141 1 2.12924e-09 
5597 1 -72.5717 23.1718 1.89125 1 3.66568e-09 
5620 1 -72.4367 21.4118 0.136429 1 3.36987e-09 
5599 1 -70.8168 21.4118 2.02625 1 5.7569e-09 
5621 1 -70.6819 23.1718 0.271436 1 5.98301e-09 
6065 1 -69.062 23.1719 2.16126 1 4.45209e-09 
6067 1 -67.3072 21.4119 2.2963 1 1.49858e-09 
6088 1 -68.927 21.4119 0.406463 1 3.46445e-09 
6089 1 -67.1722 23.1719 0.541489 1 5.26548e-09 
6533 1 -65.5523 23.172 2.43131 1 6.27166e-09 
6556 1 -65.4173 21.412 0.676528 1 1.4432e-08 
6557 1 -63.6625 23.172 0.811518 1 5.07528e-09 
7024 1 -61.9076 21.4121 0.946545 1 2.41451e-09 
7025 1 -60.1527 23.1721 1.08155 1 3.52051e-09 
7492 1 -58.3979 21.4122 1.21658 1 1.21318e-08 
7493 1 -56.643 23.1722 1.35161 1 3.6801e-09 
7972 1 -54.8881 21.4122 1.48661 1 2.40561e-09 
7974 1 -53.1333 23.1722 1.62163 1 2.69907e-09 
8440 1 -51.3784 21.4122 1.75662 1 1.08348e-08 
8441 1 -51.2434 23.1723 0.00185661 1 8.57688e-09 
8442 1 -49.6235 23.1723 1.89167 1 7.09059e-09 
8443 1 -49.4885 21.4123 0.136864 1 4.87366e-09 
8908 1 -47.8687 21.4123 2.02671 1 2.80965e-09 
8909 1 -47.7337 23.1723 0.271916 1 1.93715e-09 
8910 1 -46.1138 23.1723 2.16176 1 2.24059e-09 
8911 1 -45.9788 21.4123 0.406956 1 5.01857e-09 
9376 1 -44.359 21.4123 2.29679 1 6.38506e-09 
9377 1 -44.224 23.1723 0.541992 1 4.69054e-09 
9378 1 -42.6041 23.1723 2.43184 1 8.4644e-09 
9379 1 -42.4692 21.4123 0.677007 1 6.1239e-09 
9845 1 -40.7144 23.1723 0.812047 1 6.3465e-09 
9847 1 -38.9596 21.4123 0.947085 1 5.80132e-09 
10313 1 -37.2048 23.1723 1.08213 1 1.31527e-08 
10315 1 -35.45 21.4123 1.21721 1 1.33971e-08 
10781 1 -33.6954 23.1724 1.35229 1 2.17133e-08 
10783 1 -31.9406 21.4124 1.48738 1 4.51087e-08 
11249 1 -30.186 23.1725 1.62246 1 7.76409e-08 
11251 1 -28.4312 21.4125 1.75751 1 1.11826e-07 
11273 1 -28.2965 23.1726 0.0026434 1 1.44262e-07 