ITEM: TIMESTEP
0
ITEM: NUMBER OF ATOMS
15580
ITEM: BOX BOUNDS ss pp pp
-62.6885 116.475
0 30.4841
0 31.0878
ITEM: ATOMS id type x y z c_cna c_csd 
47 4 -60.6174 1.02672 1.4932 5 6.1952 
208 4 -58.2013 1.02672 2.09104 1 1.10062e-15 
209 4 -56.4755 1.02672 0.297518 1 9.99635e-16 
436 4 -54.0593 1.02672 0.89536 1 1.0404e-08 
478 1 -51.6432 1.0268 1.49318 1 4.36682e-09 
780 1 -49.227 1.0269 2.09102 1 1.57351e-09 
783 1 -47.5012 1.02697 0.297499 1 3.79348e-09 
1172 1 -45.0851 1.02708 0.895321 1 3.81619e-09 
1173 1 -42.6689 1.02724 1.49314 1 2.56812e-09 
1572 1 -40.2528 1.02743 2.09096 1 4.75756e-09 
1573 1 -38.5269 1.02751 0.297417 1 2.29485e-09 
1930 1 -36.1108 1.02767 0.895236 1 2.39836e-09 
1972 1 -33.6946 1.0278 1.49305 1 7.38093e-09 
2330 1 -31.2785 1.02796 2.09087 1 1.25873e-08 
2333 1 -29.5526 1.02809 0.297316 1 1.03201e-08 
2732 1 -27.1365 1.0283 0.895091 1 8.42305e-09 
2733 1 -24.7204 1.02854 1.49284 1 9.83907e-09 
3132 1 -22.3043 1.02881 2.09054 1 3.72563e-08 
3133 1 -20.5784 1.02904 0.296901 1 1.00601e-07 
3490 1 -18.1622 1.02954 0.894605 1 3.89151e-07 
3532 1 -15.7461 1.03031 1.49242 1 2.14432e-06 
3890 1 -13.3296 1.0314 2.09061 1 1.53405e-05 
3893 1 -11.6042 1.0349 0.298501 1 0.000103966 
4292 1 -9.18874 1.03997 0.89962 1 0.00063907 
4293 1 -6.77347 1.04364 1.50383 1 0.00438028 
4688 1 -4.35567 1.03677 2.09193 1 0.0987984 
4689 1 -2.63215 0.939416 0.199107 5 1.30174 
4690 1 -1.94924 1.08277 2.48826 5 6.99187 
5443 2 0.0545957 0.291402 1.16427 5 4.05578 
5444 2 0.559305 2.18621 2.48517 5 3.9662 
5446 2 1.15686 2.06601 0.0555926 5 3.1354 
5447 2 2.5458 0.0379297 0.489951 1 0.184463 
5484 2 2.89482 2.07971 1.86642 1 0.0816137 
5491 2 4.28159 0.0241995 2.27766 1 0.00873484 
5493 2 5.33671 2.03868 1.29817 1 0.0104042 
5494 2 6.71299 0.000971075 1.68691 1 0.00142346 
5607 2 7.75039 2.02726 0.691591 1 0.000624379 
5609 2 9.47216 2.03114 2.48531 1 0.000302689 
5613 2 10.1654 2.027 0.0938592 1 4.73985e-05 
5808 2 11.8896 2.0276 1.88833 1 2.1314e-05 
5810 2 14.3059 2.02654 1.29091 1 1.91813e-06 
6084 2 18.4477 2.02624 2.4868 1 2.72899e-07 
6086 2 16.7221 2.02629 0.693195 1 4.09345e-07 
6087 2 19.1383 2.02636 0.0953516 1 1.3107e-07 
6425 2 20.864 2.0265 1.88887 1 9.38291e-08 
6434 2 23.2802 2.02682 1.29096 1 2.45577e-08 
6813 2 25.6964 2.02716 0.693067 1 6.75593e-09 
35 4 -60.2723 3.059 0.0982369 1 3.00994e-16 
45 4 -61.9981 3.059 1.89176 5 18.5856 
171 4 -59.5819 3.059 2.48961 1 9.99979e-16 
174 4 -57.8561 3.059 0.696079 1 1.09621e-15 
435 4 -55.44 3.059 1.29392 1 2.00007e-16 
437 4 -53.0238 3.059 1.89176 1 3.6964e-08 
316 1 -51.298 3.05909 0.0982093 1 5.36437e-09 
779 1 -50.6077 3.05911 2.48958 1 3.51829e-09 
781 1 -48.8819 3.05918 0.696059 1 1.53326e-09 
1128 1 -46.4657 3.0593 1.29391 1 4.41664e-09 
915 1 -42.3238 3.05952 0.0981667 1 1.50163e-09 
1170 1 -44.0496 3.05942 1.89171 1 4.42053e-09 
1527 1 -41.6334 3.0596 2.48952 1 6.43979e-09 
1530 1 -39.9076 3.0597 0.695983 1 2.27464e-09 
1929 1 -37.4914 3.05986 1.29381 1 1.2639e-09 
1931 1 -35.0753 3.06 1.89163 1 1.61431e-09 
1680 1 -33.3494 3.06009 0.0980801 1 3.75325e-09 
2329 1 -32.6591 3.06015 2.48945 1 6.55974e-09 
2331 1 -30.9333 3.06025 0.695904 1 1.36157e-08 
2688 1 -28.5171 3.06046 1.2937 1 9.67655e-09 
2465 1 -24.3752 3.06081 0.0978432 1 2.27087e-08 
2730 1 -26.101 3.0607 1.89147 1 4.44592e-09 
3087 1 -23.6849 3.06095 2.4892 1 1.39706e-08 
3090 1 -21.959 3.0611 0.695542 1 4.88359e-08 
3489 1 -19.5429 3.06148 1.29321 1 2.09331e-07 
3491 1 -17.1267 3.06198 1.89088 1 1.03317e-06 
3240 1 -15.4004 3.06305 0.0975963 1 4.98326e-06 
3889 1 -14.7103 3.06258 2.48859 1 7.13708e-06 
3891 1 -12.9835 3.06507 0.696001 1 4.01695e-05 
4248 1 -10.5648 3.06846 1.29529 1 0.000298215 
4025 1 -6.41167 3.07553 0.109032 1 0.0251219 
4290 1 -8.13971 3.07298 1.8955 1 0.00229272 
4643 1 -5.69782 3.07586 2.49396 1 0.0222586 
4646 1 -3.93078 3.0294 0.711974 5 0.762083 
5005 1 -0.835532 4.46902 2.35927 5 6.08223 
5006 1 -1.09722 2.68013 0.796967 5 5.33783 
5487 2 1.37251 4.17893 1.35606 5 4.54762 
5489 2 3.93246 4.0841 0.891491 1 0.0697007 
5610 2 6.36424 4.05443 0.290486 1 0.00404468 
5608 2 8.09011 4.06446 2.08435 1 0.000578679 
5797 2 10.5092 4.06032 1.48918 1 4.72251e-05 
5809 2 12.9257 4.05907 0.892169 1 3.44164e-06 
6077 2 15.3417 4.05868 0.294579 1 5.28176e-07 
6079 2 17.0671 4.05846 2.08829 1 4.59242e-07 
6428 2 19.4833 4.05862 1.49036 1 1.53781e-07 
6430 2 21.8996 4.05889 0.892441 1 6.66552e-08 
6816 2 24.3157 4.05923 0.294545 1 2.01347e-08 
6814 2 26.0416 4.05951 2.08801 1 6.69396e-09 
151 4 -61.6529 5.09127 0.496798 5 18.5856 
152 4 -60.6174 7.12354 1.4932 5 6.1952 
172 4 -59.2368 5.09127 1.09464 1 5.00047e-16 
390 4 -58.2013 7.12354 2.09104 1 1.10002e-15 
391 4 -56.8206 5.09127 1.69248 1 7.97985e-16 
392 4 -56.4755 7.12354 0.297518 1 9.99035e-16 
433 4 -54.4045 5.09127 2.29033 1 5.07582e-09 
692 4 -54.0593 7.12354 0.89536 1 1.04005e-08 
737 1 -52.6787 5.0913 0.496793 1 8.71038e-09 
735 1 -51.6432 7.12362 1.49318 1 4.36745e-09 
738 1 -50.2625 5.09141 1.09461 1 3.47161e-09 
1082 1 -49.227 7.12372 2.09102 1 1.57321e-09 
1085 1 -47.5012 7.12378 0.297499 1 3.79387e-09 
1127 1 -47.8464 5.09151 1.69247 1 4.17624e-09 
1129 1 -45.4302 5.09163 2.2903 1 3.77181e-09 
1484 1 -45.0851 7.1239 0.895321 1 3.8164e-09 
1485 1 -43.7044 5.0917 0.496753 1 6.39097e-09 
1486 1 -42.6689 7.12406 1.49314 1 2.56842e-09 
1528 1 -41.2883 5.09189 1.09456 1 3.10732e-09 
1884 1 -40.2528 7.12425 2.09096 1 4.75824e-09 
1885 1 -38.8721 5.09206 1.69238 1 2.29944e-09 
1886 1 -38.5269 7.12432 0.297417 1 2.29503e-09 
1927 1 -36.4559 5.09221 2.29022 1 3.11261e-09 
2242 1 -36.1108 7.12448 0.895236 1 2.39866e-09 
2287 1 -34.7301 5.09228 0.496663 1 4.97181e-09 
2285 1 -33.6946 7.12462 1.49305 1 7.38123e-09 
2288 1 -32.314 5.09243 1.09448 1 9.34907e-09 
2642 1 -31.2785 7.12478 2.09087 1 1.25883e-08 
2645 1 -29.5526 7.1249 0.297316 1 1.03203e-08 
2687 1 -29.8978 5.09261 1.69229 1 8.01578e-09 
2689 1 -27.4816 5.09285 2.29008 1 5.63436e-09 
3044 1 -27.1365 7.12512 0.895091 1 8.42315e-09 
3045 1 -25.7558 5.09296 0.496469 1 1.75987e-08 
3046 1 -24.7204 7.12536 1.49284 1 9.83904e-09 
3088 1 -23.3397 5.09322 1.09419 1 2.20111e-08 
3444 1 -22.3043 7.12563 2.09054 1 3.7255e-08 
3445 1 -20.9236 5.09352 1.69187 1 8.03872e-08 
3446 1 -20.5784 7.12585 0.296901 1 1.006e-07 
3487 1 -18.5075 5.09388 2.28952 1 3.76077e-07 
3802 1 -18.1622 7.12636 0.894605 1 3.89155e-07 
3847 1 -16.7815 5.09457 0.496022 1 1.06111e-06 
3845 1 -15.7461 7.12713 1.49242 1 2.1443e-06 
3848 1 -14.3653 5.0958 1.09403 1 7.51137e-06 
4202 1 -13.3296 7.12822 2.09061 1 1.53405e-05 
4205 1 -11.6042 7.13172 0.298501 1 0.000103966 
4247 1 -11.9486 5.09768 1.69265 1 5.79912e-05 
4249 1 -9.53025 5.10003 2.29274 1 0.000519582 
4600 1 -9.18874 7.13679 0.89962 1 0.000639079 
4601 1 -7.81536 5.10633 0.500342 1 0.00310474 
4602 1 -6.77347 7.14045 1.50383 1 0.00438014 
4644 1 -5.417 5.09784 1.10969 1 0.0335609 
4962 1 -4.35568 7.13359 2.09193 1 0.0987992 
4963 1 -3.02622 5.09241 1.68324 5 1.31078 
4964 1 -2.63215 7.03624 0.199103 5 1.30176 
4965 1 -1.94923 7.17959 2.48827 5 6.99176 
5474 2 0.0545992 6.38823 1.16427 5 4.05572 
5488 2 2.54579 6.13475 0.489952 1 0.184466 
5597 2 4.28159 6.12102 2.27766 1 0.00873485 
5600 2 6.71299 6.09779 1.68691 1 0.00142349 
5800 2 9.13119 6.09271 1.09054 1 0.000208638 
5802 2 11.5463 6.09164 0.49323 1 2.53503e-05 
6061 2 13.2707 6.09137 2.28732 1 8.09208e-06 
6078 2 15.6867 6.09083 1.68965 1 9.81397e-07 
6414 2 18.1028 6.09082 1.09179 1 2.51657e-07 
6429 2 20.5189 6.091 0.493893 1 1.00276e-07 
6803 2 22.2447 6.09124 2.28738 1 2.61277e-08 
6806 2 24.6609 6.09158 1.68948 1 6.35475e-09 
112 4 -60.2723 9.15581 0.0982369 1 6.01594e-16 
149 4 -61.9981 9.15581 1.89176 5 18.5856 
353 4 -59.5819 9.15581 2.48961 1 1.30058e-15 
356 4 -57.8561 9.15581 0.696079 1 1.39681e-15 
691 4 -55.44 9.15581 1.29392 1 5.00608e-16 
693 4 -53.0238 9.15581 1.89176 1 3.69668e-08 
543 1 -51.298 9.15591 0.0982093 1 5.36468e-09 
1081 1 -50.6077 9.15593 2.48958 1 3.51807e-09 
1083 1 -48.8819 9.156 0.696059 1 1.53331e-09 
1440 1 -46.4657 9.15611 1.29391 1 4.41613e-09 
1268 1 -42.3238 9.15634 0.0981667 1 1.50168e-09 
1482 1 -44.0496 9.15624 1.89171 1 4.42071e-09 
1839 1 -41.6334 9.15642 2.48952 1 6.43954e-09 
1842 1 -39.9076 9.15652 0.695983 1 2.27469e-09 
2241 1 -37.4914 9.15668 1.29381 1 1.26428e-09 
2243 1 -35.0753 9.15682 1.89163 1 1.61439e-09 
2037 1 -33.3494 9.15691 0.0980801 1 3.75395e-09 
2641 1 -32.6591 9.15696 2.48945 1 6.55972e-09 
2643 1 -30.9333 9.15707 0.695904 1 1.36138e-08 
3000 1 -28.5171 9.15727 1.2937 1 9.67607e-09 
2828 1 -24.3752 9.15763 0.0978432 1 2.271e-08 
3042 1 -26.101 9.15752 1.89147 1 4.44644e-09 
3399 1 -23.6849 9.15777 2.4892 1 1.39695e-08 
3402 1 -21.959 9.15792 0.695542 1 4.8837e-08 
3801 1 -19.5429 9.1583 1.29321 1 2.09334e-07 
3803 1 -17.1267 9.1588 1.89088 1 1.03317e-06 
3597 1 -15.4004 9.15987 0.0975963 1 4.9833e-06 
4201 1 -14.7103 9.1594 2.48859 1 7.13709e-06 
4203 1 -12.9835 9.16189 0.696001 1 4.01692e-05 
4556 1 -10.5648 9.16528 1.29529 1 0.000298216 
4388 1 -6.41167 9.17235 0.109032 1 0.0251217 
4598 1 -8.13971 9.1698 1.8955 1 0.0022927 
4917 1 -5.69782 9.17268 2.49396 1 0.0222585 
4920 1 -3.93078 9.12622 0.711973 5 0.762085 
5210 1 -1.09722 8.77695 0.796967 5 5.33783 
5475 2 0.559304 8.28303 2.48517 5 3.96622 
5477 2 1.15686 8.16282 0.0555938 5 3.1354 
5578 2 2.89481 8.17653 1.86642 1 0.0816122 
5599 2 5.33671 8.1355 1.29817 1 0.0104043 
5786 2 6.36424 10.1513 0.290486 1 0.00404472 
5783 2 7.75039 8.12407 0.691591 1 0.000624384 
5784 2 8.09011 10.1613 2.08435 1 0.000578684 
5785 2 9.47216 8.12796 2.48531 1 0.000302688 
5801 2 10.1654 8.12381 0.0938592 1 4.73991e-05 
6041 2 10.5092 10.1571 1.48918 1 4.72247e-05 
6064 2 11.8896 8.12441 1.88833 1 2.1314e-05 
6065 2 12.9257 10.1559 0.892169 1 3.44164e-06 
6066 2 14.3059 8.12335 1.29091 1 1.91812e-06 
6396 2 15.3417 10.1555 0.294579 1 5.28175e-07 
6398 2 17.0671 10.1553 2.08829 1 4.59246e-07 
6415 2 18.4477 8.12306 2.4868 1 2.72901e-07 
6417 2 16.7221 8.12311 0.693195 1 4.09339e-07 
6418 2 19.1383 8.12318 0.0953516 1 1.3107e-07 
6784 2 20.864 8.12331 1.88887 1 9.38289e-08 
6787 2 19.4833 10.1554 1.49036 1 1.53779e-07 
6789 2 21.8996 10.1557 0.892441 1 6.66534e-08 
6805 2 23.2802 8.12364 1.29096 1 2.4558e-08 
7184 2 24.3157 10.156 0.294545 1 2.01347e-08 
7181 2 25.6964 8.12398 0.693067 1 6.75586e-09 
7182 2 26.0416 10.1563 2.08801 1 6.69424e-09 
333 4 -61.6529 11.1881 0.496798 5 18.5856 
354 4 -59.2368 11.1881 1.09464 1 5.00047e-16 
648 4 -56.8206 11.1881 1.69248 1 7.97985e-16 
689 4 -54.4045 11.1881 2.29033 1 5.07613e-09 
1039 1 -52.6787 11.1881 0.496793 1 8.7108e-09 
1040 1 -50.2625 11.1882 1.09461 1 3.47145e-09 
1439 1 -47.8464 11.1883 1.69247 1 4.17565e-09 
1441 1 -45.4302 11.1885 2.2903 1 3.77196e-09 
1799 1 -43.7044 11.1885 0.496753 1 6.39062e-09 
1840 1 -41.2883 11.1887 1.09456 1 3.10699e-09 
2198 1 -38.8721 11.1889 1.69238 1 2.29954e-09 
2239 1 -36.4559 11.189 2.29022 1 3.11242e-09 
2599 1 -34.7301 11.1891 0.496663 1 4.97241e-09 
2600 1 -32.314 11.1892 1.09448 1 9.34899e-09 
2999 1 -29.8978 11.1894 1.69229 1 8.01598e-09 
3001 1 -27.4816 11.1897 2.29008 1 5.63426e-09 
3359 1 -25.7558 11.1898 0.496469 1 1.75984e-08 
3400 1 -23.3397 11.19 1.09419 1 2.2011e-08 
3758 1 -20.9236 11.1903 1.69187 1 8.03893e-08 
3799 1 -18.5075 11.1907 2.28952 1 3.7607e-07 
4159 1 -16.7815 11.1914 0.496022 1 1.06111e-06 
4160 1 -14.3653 11.1926 1.09403 1 7.51134e-06 
4555 1 -11.9486 11.1945 1.69265 1 5.79914e-05 
4557 1 -9.53025 11.1968 2.29274 1 0.000519588 
4877 1 -7.81536 11.2031 0.500342 1 0.00310465 
4918 1 -5.417 11.1947 1.10969 1 0.0335599 
5168 1 -3.02622 11.1892 1.68324 5 1.31078 
5209 1 -0.835533 10.5658 2.35926 5 6.08224 
5556 2 0.054598 12.485 1.16427 5 4.05575 
5581 2 1.37251 10.2757 1.35606 5 4.54762 
5582 2 2.54579 12.2316 0.489951 1 0.184465 
5583 2 3.93246 10.1809 0.891491 1 0.0697007 
5761 2 4.28159 12.2178 2.27766 1 0.00873481 
5764 2 6.71299 12.1946 1.68691 1 0.00142346 
6044 2 9.13119 12.1895 1.09054 1 0.000208638 
6046 2 11.5463 12.1885 0.49323 1 2.53503e-05 
6368 2 13.2707 12.1882 2.28732 1 8.0921e-06 
6397 2 15.6867 12.1877 1.68965 1 9.814e-07 
6761 2 18.1028 12.1876 1.09179 1 2.51658e-07 
6788 2 20.5189 12.1878 0.493893 1 1.00282e-07 
7159 2 22.2447 12.1881 2.28738 1 2.61277e-08 
7162 2 24.6609 12.1884 1.68948 1 6.35446e-09 
334 4 -60.6174 13.2204 1.4932 5 6.1952 
647 4 -58.2013 13.2204 2.09104 1 8.00023e-16 
649 4 -56.4755 13.2204 0.297518 1 6.99035e-16 
1000 4 -54.0593 13.2204 0.89536 1 1.04023e-08 
1037 1 -51.6432 13.2204 1.49318 1 4.3667e-09 
1398 1 -49.227 13.2205 2.09102 1 1.57341e-09 
1401 1 -47.5012 13.2206 0.297499 1 3.7939e-09 
1798 1 -45.0851 13.2207 0.895321 1 3.81605e-09 
1800 1 -42.6689 13.2209 1.49314 1 2.56844e-09 
2197 1 -40.2528 13.2211 2.09096 1 4.75757e-09 
2199 1 -38.5269 13.2211 0.297417 1 2.29508e-09 
2560 1 -36.1108 13.2213 0.895236 1 2.39834e-09 
2597 1 -33.6946 13.2214 1.49305 1 7.38094e-09 
2958 1 -31.2785 13.2216 2.09087 1 1.25872e-08 
2961 1 -29.5526 13.2217 0.297316 1 1.03201e-08 
3358 1 -27.1365 13.2219 0.895091 1 8.42305e-09 
3360 1 -24.7204 13.2222 1.49284 1 9.83925e-09 
3757 1 -22.3043 13.2225 2.09054 1 3.72552e-08 
3759 1 -20.5784 13.2227 0.296901 1 1.00601e-07 
4120 1 -18.1622 13.2232 0.894605 1 3.89152e-07 
4157 1 -15.7461 13.2239 1.49242 1 2.14431e-06 
4514 1 -13.3296 13.225 2.09061 1 1.53405e-05 
4517 1 -11.6042 13.2285 0.298501 1 0.000103966 
4876 1 -9.18874 13.2336 0.89962 1 0.000639074 
4878 1 -6.77347 13.2373 1.50383 1 0.00438022 
5133 1 -3.93078 15.223 0.711973 5 0.762083 
5167 1 -4.35568 13.2304 2.09193 1 0.0987988 
5169 1 -2.63215 13.1331 0.199105 5 1.30175 
5170 1 -1.94924 13.2764 2.48827 5 6.99184 
5342 1 -1.09722 14.8738 0.796967 5 5.33784 
5557 2 0.559306 14.3798 2.48517 5 3.96623 
5559 2 1.15686 14.2596 0.0555944 5 3.13541 
5730 2 2.89481 14.2733 1.86642 1 0.0816131 
5763 2 5.33671 14.2323 1.29817 1 0.0104042 
6015 2 7.75039 14.2209 0.691591 1 0.000624376 
6017 2 9.47216 14.2248 2.48531 1 0.000302688 
6045 2 10.1654 14.2206 0.0938591 1 4.73985e-05 
6371 2 11.8896 14.2212 1.88833 1 2.1314e-05 
6373 2 14.3059 14.2202 1.29091 1 1.91813e-06 
6762 2 18.4477 14.2199 2.4868 1 2.72897e-07 
6764 2 16.7221 14.2199 0.693195 1 4.09346e-07 
6765 2 19.1383 14.22 0.0953516 1 1.3107e-07 
7128 2 20.864 14.2201 1.88887 1 9.38285e-08 
7161 2 23.2802 14.2205 1.29096 1 2.45567e-08 
7527 2 25.6964 14.2208 0.693067 1 6.75591e-09 
247 4 -60.2723 15.2526 0.0982369 1 6.00994e-16 
331 4 -61.9981 15.2526 1.89176 5 18.5856 
593 4 -61.6529 17.2849 0.496798 5 12.3904 
613 4 -59.5819 15.2526 2.48961 1 1.29998e-15 
614 4 -59.2368 17.2849 1.09464 1 8.00047e-16 
616 4 -57.8561 15.2526 0.696079 1 1.39621e-15 
967 4 -56.8206 17.2849 1.69248 1 1.09798e-15 
999 4 -55.44 15.2526 1.29392 1 5.00007e-16 
997 4 -54.4045 17.2849 2.29033 1 5.0767e-09 
1001 4 -53.0238 15.2526 1.89176 1 3.69578e-08 
1366 1 -52.6787 17.2849 0.496793 1 8.70861e-09 
824 1 -51.298 15.2527 0.0982093 1 5.36389e-09 
1367 1 -50.2625 17.285 1.09461 1 3.47182e-09 
1397 1 -50.6077 15.2527 2.48958 1 3.51835e-09 
1399 1 -48.8819 15.2528 0.696059 1 1.53334e-09 
1762 1 -47.8464 17.2851 1.69247 1 4.17645e-09 
1763 1 -46.4657 15.2529 1.29391 1 4.41666e-09 
1764 1 -45.4302 17.2853 2.2903 1 3.77177e-09 
1611 1 -42.3238 15.2532 0.0981667 1 1.50157e-09 
1796 1 -44.0496 15.2531 1.89171 1 4.42069e-09 
2132 1 -43.7044 17.2853 0.496753 1 6.39063e-09 
2160 1 -41.6334 15.2532 2.48952 1 6.43983e-09 
2161 1 -41.2883 17.2855 1.09456 1 3.10727e-09 
2163 1 -39.9076 15.2533 0.695983 1 2.27461e-09 
2527 1 -38.8721 17.2857 1.69238 1 2.29944e-09 
2559 1 -37.4914 15.2535 1.29381 1 1.26401e-09 
2557 1 -36.4559 17.2858 2.29022 1 3.11236e-09 
2561 1 -35.0753 15.2536 1.89163 1 1.6143e-09 
2926 1 -34.7301 17.2859 0.496663 1 4.97199e-09 
2374 1 -33.3494 15.2537 0.0980801 1 3.75321e-09 
2927 1 -32.314 17.2861 1.09448 1 9.34946e-09 
2957 1 -32.6591 15.2538 2.48945 1 6.55975e-09 
2959 1 -30.9333 15.2539 0.695904 1 1.36151e-08 
3322 1 -29.8978 17.2862 1.69229 1 8.01554e-09 
3323 1 -28.5171 15.2541 1.2937 1 9.67661e-09 
3324 1 -27.4816 17.2865 2.29008 1 5.6341e-09 
3171 1 -24.3752 15.2545 0.0978432 1 2.27087e-08 
3356 1 -26.101 15.2543 1.89147 1 4.44637e-09 
3692 1 -25.7558 17.2866 0.496469 1 1.75989e-08 
3720 1 -23.6849 15.2546 2.4892 1 1.39705e-08 
3721 1 -23.3397 17.2869 1.09419 1 2.20102e-08 
3723 1 -21.959 15.2547 0.695542 1 4.88371e-08 
4087 1 -20.9236 17.2872 1.69187 1 8.03887e-08 
4119 1 -19.5429 15.2551 1.29321 1 2.09333e-07 
4117 1 -18.5075 17.2875 2.28952 1 3.76077e-07 
4121 1 -17.1267 15.2556 1.89088 1 1.03317e-06 
4482 1 -16.7815 17.2882 0.496022 1 1.06111e-06 
3934 1 -15.4004 15.2567 0.0975963 1 4.98326e-06 
4483 1 -14.3653 17.2894 1.09403 1 7.51136e-06 
4513 1 -14.7103 15.2562 2.48859 1 7.13708e-06 
4515 1 -12.9835 15.2587 0.696001 1 4.01695e-05 
4840 1 -11.9486 17.2913 1.69265 1 5.79913e-05 
4841 1 -10.5648 15.2621 1.29529 1 0.000298214 
4842 1 -9.53025 17.2937 2.29274 1 0.000519589 
4727 1 -6.41167 15.2692 0.109032 1 0.0251216 
4874 1 -8.13971 15.2666 1.8955 1 0.00229272 
5102 1 -7.81536 17.3 0.500342 1 0.00310465 
5130 1 -5.69782 15.2695 2.49396 1 0.0222584 
5131 1 -5.417 17.2915 1.10969 1 0.0335599 
5311 1 -3.02622 17.286 1.68324 5 1.31078 
5341 1 -0.835532 16.6627 2.35926 5 6.08223 
5733 2 1.37251 16.3726 1.35606 5 4.54762 
5735 2 3.93246 16.2777 0.891491 1 0.0697006 
6018 2 6.36424 16.2481 0.290486 1 0.00404468 
6016 2 8.09011 16.2581 2.08435 1 0.000578683 
6336 2 10.5092 16.254 1.48918 1 4.7225e-05 
6372 2 12.9257 16.2527 0.892169 1 3.44162e-06 
6731 2 15.3417 16.2523 0.294579 1 5.28177e-07 
6733 2 17.0671 16.2521 2.08829 1 4.59242e-07 
7131 2 19.4833 16.2523 1.49036 1 1.5378e-07 
7133 2 21.8996 16.2525 0.892441 1 6.66535e-08 
7530 2 24.3157 16.2529 0.294545 1 2.01352e-08 
7528 2 26.0416 16.2531 2.08801 1 6.69363e-09 
594 4 -60.6174 19.3172 1.4932 5 6.1952 
966 4 -58.2013 19.3172 2.09104 1 8.00023e-16 
968 4 -56.4755 19.3172 0.297518 1 6.99035e-16 
1339 4 -54.0593 19.3172 0.89536 1 1.04032e-08 
1364 1 -51.6432 19.3173 1.49318 1 4.367e-09 
1733 1 -49.227 19.3174 2.09102 1 1.57339e-09 
1736 1 -47.5012 19.3174 0.297499 1 3.79346e-09 
2131 1 -45.0851 19.3175 0.895321 1 3.8164e-09 
2133 1 -42.6689 19.3177 1.49314 1 2.56808e-09 
2526 1 -40.2528 19.3179 2.09096 1 4.75798e-09 
2528 1 -38.5269 19.318 0.297417 1 2.29478e-09 
2899 1 -36.1108 19.3181 0.895236 1 2.39856e-09 
2924 1 -33.6946 19.3183 1.49305 1 7.38108e-09 
3293 1 -31.2785 19.3184 2.09087 1 1.25881e-08 
3296 1 -29.5526 19.3185 0.297316 1 1.03201e-08 
3691 1 -27.1365 19.3188 0.895091 1 8.42313e-09 
3693 1 -24.7204 19.319 1.49284 1 9.83894e-09 
4086 1 -22.3043 19.3193 2.09054 1 3.7256e-08 
4088 1 -20.5784 19.3195 0.296901 1 1.00601e-07 
4455 1 -18.1622 19.32 0.894605 1 3.89152e-07 
4480 1 -15.7461 19.3208 1.49242 1 2.14432e-06 
4811 1 -13.3296 19.3219 2.09061 1 1.53405e-05 
4814 1 -11.6042 19.3254 0.298501 1 0.000103966 
5101 1 -9.18874 19.3304 0.89962 1 0.000639073 
5103 1 -6.77347 19.3341 1.50383 1 0.00438023 
5310 1 -4.35568 19.3272 2.09193 1 0.0987987 
5312 1 -2.63215 19.2299 0.199105 5 1.30175 
5313 1 -1.94924 19.3732 2.48827 5 6.99181 
5696 2 0.0545965 18.5819 1.16427 5 4.05576 
5734 2 2.54579 18.3284 0.489951 1 0.184464 
5981 2 4.28159 18.3147 2.27766 1 0.00873487 
5984 2 6.71299 18.2914 1.68691 1 0.00142348 
6298 2 7.75039 20.3177 0.691591 1 0.000624385 
6300 2 9.47216 20.3216 2.48531 1 0.000302689 
6339 2 9.13119 18.2863 1.09054 1 0.000208638 
6340 2 10.1654 20.3175 0.0938592 1 4.73989e-05 
6341 2 11.5463 18.2853 0.49323 1 2.53501e-05 
6691 2 13.2707 18.285 2.28732 1 8.0921e-06 
6694 2 11.8896 20.3181 1.88833 1 2.1314e-05 
6696 2 14.3059 20.317 1.29091 1 1.91812e-06 
6732 2 15.6867 18.2845 1.68965 1 9.81402e-07 
7093 2 18.1028 18.2845 1.09179 1 2.51654e-07 
7094 2 18.4477 20.3167 2.4868 1 2.72902e-07 
7096 2 16.7221 20.3168 0.693195 1 4.09342e-07 
7097 2 19.1383 20.3168 0.0953516 1 1.3107e-07 
7132 2 20.5189 18.2846 0.493893 1 1.00275e-07 
7450 2 20.864 20.317 1.88887 1 9.38294e-08 
7493 2 22.2447 18.2849 2.28738 1 2.61281e-08 
7495 2 23.2802 20.3173 1.29096 1 2.45585e-08 
7496 2 24.6609 18.2852 1.68948 1 6.35472e-09 
7853 2 25.6964 20.3176 0.693067 1 6.75592e-09 
438 4 -60.2723 21.3495 0.0982369 1 3.00994e-16 
591 4 -61.9981 21.3495 1.89176 5 18.5856 
941 4 -59.5819 21.3495 2.48961 1 9.99979e-16 
944 4 -57.8561 21.3495 0.696079 1 1.09621e-15 
1338 4 -55.44 21.3495 1.29392 1 2.00007e-16 
1340 4 -53.0238 21.3495 1.89176 1 3.6961e-08 
1130 1 -51.298 21.3495 0.0982093 1 5.3642e-09 
1732 1 -50.6077 21.3496 2.48958 1 3.51813e-09 
1734 1 -48.8819 21.3496 0.696059 1 1.53324e-09 
2108 1 -46.4657 21.3498 1.29391 1 4.41631e-09 
1932 1 -42.3238 21.35 0.0981667 1 1.50169e-09 
2129 1 -44.0496 21.3499 1.89171 1 4.42055e-09 
2501 1 -41.6334 21.3501 2.48952 1 6.43963e-09 
2504 1 -39.9076 21.3502 0.695983 1 2.2747e-09 
2898 1 -37.4914 21.3503 1.29381 1 1.26404e-09 
2900 1 -35.0753 21.3505 1.89163 1 1.61436e-09 
2690 1 -33.3494 21.3506 0.0980801 1 3.75369e-09 
3292 1 -32.6591 21.3506 2.48945 1 6.55975e-09 
3294 1 -30.9333 21.3507 0.695904 1 1.36149e-08 
3668 1 -28.5171 21.3509 1.2937 1 9.67617e-09 
3492 1 -24.3752 21.3513 0.0978432 1 2.27095e-08 
3689 1 -26.101 21.3512 1.89147 1 4.446e-09 
4061 1 -23.6849 21.3514 2.4892 1 1.39698e-08 
4064 1 -21.959 21.3516 0.695542 1 4.88359e-08 
4454 1 -19.5429 21.3519 1.29321 1 2.09332e-07 
4456 1 -17.1267 21.3524 1.89088 1 1.03317e-06 
4250 1 -15.4004 21.3535 0.0975963 1 4.98329e-06 
4810 1 -14.7103 21.353 2.48859 1 7.13709e-06 
4812 1 -12.9835 21.3555 0.696001 1 4.01693e-05 
5078 1 -10.5648 21.3589 1.29529 1 0.000298216 
5007 1 -6.41167 21.366 0.109032 1 0.0251219 
5099 1 -8.13971 21.3634 1.8955 1 0.0022927 
5285 1 -5.69782 21.3663 2.49396 1 0.0222587 
5288 1 -3.93078 21.3199 0.711973 5 0.762084 
5416 1 -0.835532 22.7595 2.35927 5 6.08224 
5417 1 -1.09722 20.9706 0.796967 5 5.33782 
5697 2 0.559304 20.4767 2.48517 5 3.9662 
5699 2 1.15686 20.3565 0.0555922 5 3.1354 
5938 2 2.89482 20.3702 1.86642 1 0.0816132 
5941 2 1.37251 22.4694 1.35606 5 4.54762 
5943 2 3.93246 22.3746 0.891492 1 0.0697008 
5983 2 5.33671 20.3291 1.29817 1 0.0104043 
6301 2 6.36424 22.3449 0.290486 1 0.0040447 
6299 2 8.09011 22.3549 2.08435 1 0.000578679 
6648 2 10.5092 22.3508 1.48918 1 4.72249e-05 
6695 2 12.9257 22.3495 0.892169 1 3.44165e-06 
7051 2 15.3417 22.3491 0.294579 1 5.28175e-07 
7053 2 17.0671 22.3489 2.08829 1 4.59244e-07 
7453 2 19.4833 22.3491 1.49036 1 1.5378e-07 
7455 2 21.8996 22.3493 0.892441 1 6.66549e-08 
7856 2 24.3157 22.3497 0.294545 1 2.01343e-08 
7854 2 26.0416 22.35 2.08801 1 6.6943e-09 
926 4 -61.6529 23.3817 0.496798 5 18.5856 
942 4 -59.2368 23.3817 1.09464 1 8.00047e-16 
1318 4 -56.8206 23.3817 1.69248 1 1.09798e-15 
1336 4 -54.4045 23.3817 2.29033 1 5.07515e-09 
1713 1 -52.6787 23.3818 0.496793 1 8.7099e-09 
1714 1 -50.2625 23.3819 1.09461 1 3.47125e-09 
2107 1 -47.8464 23.382 1.69247 1 4.17573e-09 
2109 1 -45.4302 23.3821 2.2903 1 3.77187e-09 
2485 1 -43.7044 23.3822 0.496753 1 6.39096e-09 
2502 1 -41.2883 23.3823 1.09456 1 3.10719e-09 
2878 1 -38.8721 23.3825 1.69238 1 2.29947e-09 
2896 1 -36.4559 23.3827 2.29022 1 3.11263e-09 
3273 1 -34.7301 23.3827 0.496663 1 4.97209e-09 
3274 1 -32.314 23.3829 1.09448 1 9.34875e-09 
3667 1 -29.8978 23.3831 1.69229 1 8.01596e-09 
3669 1 -27.4816 23.3833 2.29008 1 5.63449e-09 
4045 1 -25.7558 23.3834 0.496469 1 1.75984e-08 
4062 1 -23.3397 23.3837 1.09419 1 2.20115e-08 
4434 1 -20.9236 23.384 1.69187 1 8.03878e-08 
4452 1 -18.5075 23.3843 2.28952 1 3.76074e-07 
4791 1 -16.7815 23.385 0.496022 1 1.06111e-06 
4792 1 -14.3653 23.3863 1.09403 1 7.51136e-06 
5077 1 -11.9486 23.3881 1.69265 1 5.79913e-05 
5079 1 -9.53025 23.3905 2.29274 1 0.000519581 
5269 1 -7.81536 23.3968 0.500342 1 0.00310474 
5286 1 -5.417 23.3883 1.10969 1 0.0335609 
5398 1 -3.02622 23.3829 1.68324 5 1.31078 
5399 1 -2.63215 25.3267 0.199103 5 1.30176 
5896 2 0.0546003 24.6787 1.16427 5 4.05571 
5942 2 2.54579 24.4252 0.489952 1 0.184467 
6254 2 4.28159 24.4115 2.27766 1 0.00873482 
6257 2 6.71299 24.3882 1.68691 1 0.00142347 
6651 2 9.13119 24.3832 1.09054 1 0.000208638 
6653 2 11.5463 24.3821 0.49323 1 2.53504e-05 
7004 2 13.2707 24.3818 2.28732 1 8.09208e-06 
7052 2 15.6867 24.3813 1.68965 1 9.81396e-07 
7407 2 18.1028 24.3813 1.09179 1 2.51659e-07 
7454 2 20.5189 24.3815 0.493893 1 1.0028e-07 
7809 2 22.2447 24.3817 2.28738 1 2.61275e-08 
7812 2 24.6609 24.382 1.68948 1 6.35463e-09 
694 4 -60.2723 27.4463 0.0982369 1 3.00994e-16 
924 4 -61.9981 27.4463 1.89176 5 18.5856 
927 4 -60.6174 25.414 1.4932 5 6.1952 
1304 4 -59.5819 27.4463 2.48961 1 9.99979e-16 
1307 4 -57.8561 27.4463 0.696079 1 1.09621e-15 
1317 4 -58.2013 25.414 2.09104 1 1.10002e-15 
1319 4 -56.4755 25.414 0.297518 1 9.99035e-16 
1697 4 -55.44 27.4463 1.29392 1 2.00007e-16 
1698 4 -54.0593 25.414 0.89536 1 1.04035e-08 
1699 4 -53.0238 27.4463 1.89176 1 3.69619e-08 
1442 1 -51.298 27.4464 0.0982093 1 5.36423e-09 
1711 1 -51.6432 25.4141 1.49318 1 4.36664e-09 
2089 1 -50.6077 27.4464 2.48958 1 3.51823e-09 
2090 1 -49.227 25.4142 2.09102 1 1.5732e-09 
2091 1 -48.8819 27.4465 0.696059 1 1.53335e-09 
2093 1 -47.5012 25.4142 0.297499 1 3.79415e-09 
2473 1 -46.4657 27.4466 1.29391 1 4.41636e-09 
2484 1 -45.0851 25.4144 0.895321 1 3.81619e-09 
2244 1 -42.3238 27.4468 0.0981667 1 1.50161e-09 
2482 1 -44.0496 27.4467 1.89171 1 4.4208e-09 
2486 1 -42.6689 25.4145 1.49314 1 2.56863e-09 
2864 1 -41.6334 27.4469 2.48952 1 6.43958e-09 
2867 1 -39.9076 27.447 0.695983 1 2.27466e-09 
2877 1 -40.2528 25.4147 2.09096 1 4.758e-09 
2879 1 -38.5269 25.4148 0.297417 1 2.29521e-09 
3257 1 -37.4914 27.4471 1.29381 1 1.26426e-09 
3258 1 -36.1108 25.4149 0.895236 1 2.39853e-09 
3259 1 -35.0753 27.4473 1.89163 1 1.61435e-09 
3002 1 -33.3494 27.4474 0.0980801 1 3.75365e-09 
3271 1 -33.6946 25.4151 1.49305 1 7.38113e-09 
3649 1 -32.6591 27.4474 2.48945 1 6.55969e-09 
3650 1 -31.2785 25.4152 2.09087 1 1.25878e-08 
3651 1 -30.9333 27.4475 0.695904 1 1.3614e-08 
3653 1 -29.5526 25.4154 0.297316 1 1.03203e-08 
4033 1 -28.5171 27.4477 1.2937 1 9.67637e-09 
4044 1 -27.1365 25.4156 0.895091 1 8.42306e-09 
3804 1 -24.3752 27.4481 0.0978432 1 2.27095e-08 
4042 1 -26.101 27.448 1.89147 1 4.44669e-09 
4046 1 -24.7204 25.4158 1.49284 1 9.83919e-09 
4420 1 -23.6849 27.4482 2.4892 1 1.39698e-08 
4423 1 -21.959 27.4484 0.695542 1 4.88378e-08 
4433 1 -22.3043 25.4161 2.09054 1 3.72544e-08 
4435 1 -20.5784 25.4163 0.296901 1 1.00601e-07 
4775 1 -19.5429 27.4488 1.29321 1 2.09334e-07 
4776 1 -18.1622 25.4168 0.894605 1 3.89155e-07 
4777 1 -17.1267 27.4493 1.89088 1 1.03316e-06 
4558 1 -15.4004 27.4503 0.0975963 1 4.98329e-06 
4789 1 -15.7461 25.4176 1.49242 1 2.14429e-06 
5059 1 -14.7103 27.4499 2.48859 1 7.13709e-06 
5060 1 -13.3296 25.4187 2.09061 1 1.53405e-05 
5061 1 -12.9835 27.4523 0.696001 1 4.01693e-05 
5063 1 -11.6042 25.4222 0.298501 1 0.000103965 
5257 1 -10.5648 27.4557 1.29529 1 0.000298215 
5268 1 -9.18874 25.4272 0.89962 1 0.000639079 
5211 1 -6.41167 27.4628 0.109032 1 0.0251215 
5266 1 -8.13971 27.4603 1.8955 1 0.00229272 
5270 1 -6.77347 25.4309 1.50383 1 0.00438013 
5384 1 -5.69782 27.4631 2.49396 1 0.0222583 
5387 1 -3.93078 27.4167 0.711972 5 0.762085 
5397 1 -4.35568 25.424 2.09193 1 0.0987993 
5400 1 -1.94923 25.47 2.48827 5 6.99178 
5438 1 -1.09722 27.0674 0.796967 5 5.33783 
5897 2 0.559305 26.5735 2.48517 5 3.96624 
5899 2 1.15686 26.4533 0.0555952 5 3.13541 
6208 2 2.89481 26.467 1.86642 1 0.0816122 
6256 2 5.33671 26.426 1.29817 1 0.0104043 
6605 2 7.75039 26.4145 0.691591 1 0.000624378 
6607 2 9.47216 26.4184 2.48531 1 0.000302688 
6652 2 10.1654 26.4143 0.0938591 1 4.73989e-05 
7007 2 11.8896 26.4149 1.88833 1 2.1314e-05 
7009 2 14.3059 26.4138 1.29091 1 1.91812e-06 
7408 2 18.4477 26.4135 2.4868 1 2.72899e-07 
7410 2 16.7221 26.4136 0.693195 1 4.09342e-07 
7411 2 19.1383 26.4136 0.0953516 1 1.3107e-07 
7763 2 20.864 26.4138 1.88887 1 9.38284e-08 
7811 2 23.2802 26.4141 1.29096 1 2.4557e-08 
8165 2 25.6964 26.4144 0.693067 1 6.75584e-09 
1301 4 -61.6529 29.4785 0.496798 5 18.5856 
1305 4 -59.2368 29.4785 1.09464 1 8.00648e-16 
1691 4 -56.8206 29.4785 1.69248 1 1.09859e-15 
1695 4 -54.4045 29.4785 2.29033 1 5.07528e-09 
2082 1 -52.6787 29.4786 0.496793 1 8.7108e-09 
2083 1 -50.2625 29.4787 1.09461 1 3.47178e-09 
2472 1 -47.8464 29.4788 1.69247 1 4.17605e-09 
2474 1 -45.4302 29.4789 2.2903 1 3.77186e-09 
2861 1 -43.7044 29.479 0.496753 1 6.39043e-09 
2865 1 -41.2883 29.4792 1.09456 1 3.10705e-09 
3251 1 -38.8721 29.4793 1.69238 1 2.29952e-09 
3255 1 -36.4559 29.4795 2.29022 1 3.11228e-09 
3642 1 -34.7301 29.4796 0.496663 1 4.97231e-09 
3643 1 -32.314 29.4797 1.09448 1 9.34939e-09 
4032 1 -29.8978 29.4799 1.69229 1 8.01572e-09 
4034 1 -27.4816 29.4801 2.29008 1 5.63401e-09 
4417 1 -25.7558 29.4802 0.496469 1 1.75987e-08 
4421 1 -23.3397 29.4805 1.09419 1 2.20103e-08 
4769 1 -20.9236 29.4808 1.69187 1 8.039e-08 
4773 1 -18.5075 29.4812 2.28952 1 3.76072e-07 
5052 1 -16.7815 29.4818 0.496022 1 1.06111e-06 
5053 1 -14.3653 29.4831 1.09403 1 7.51134e-06 
5256 1 -11.9486 29.485 1.69265 1 5.79914e-05 
5258 1 -9.53025 29.4873 2.29274 1 0.000519593 
5381 1 -7.81536 29.4936 0.500342 1 0.00310458 
5385 1 -5.417 29.4851 1.10969 1 0.0335593 
5433 1 -3.02622 29.4797 1.68324 5 1.31079 
5437 1 -0.835533 28.8563 2.35926 5 6.08223 
6211 2 1.37251 28.5662 1.35606 5 4.54762 
6212 2 3.93246 28.4714 0.891491 1 0.0697006 
6608 2 6.36424 28.4417 0.290486 1 0.0040447 
6606 2 8.09011 28.4517 2.08435 1 0.000578687 
5612 2 9.13119 30.48 1.09054 1 0.000208638 
6964 2 10.5092 28.4476 1.48918 1 4.72247e-05 
5614 2 11.5463 30.4789 0.49323 1 2.53501e-05 
5805 2 13.2707 30.4786 2.28732 1 8.09212e-06 
7008 2 12.9257 28.4463 0.892169 1 3.44162e-06 
5811 2 15.6867 30.4781 1.68965 1 9.81403e-07 
7365 2 15.3417 28.446 0.294579 1 5.28177e-07 
6083 2 18.1028 30.4781 1.09179 1 2.51655e-07 
7366 2 17.0671 28.4457 2.08829 1 4.59244e-07 
6088 2 20.5189 30.4783 0.493893 1 1.00278e-07 
7766 2 19.4833 28.4459 1.49036 1 1.53779e-07 
6432 2 22.2447 30.4785 2.28738 1 2.61281e-08 
7767 2 21.8996 28.4462 0.892441 1 6.66525e-08 