ITEM: TIMESTEP
0
ITEM: NUMBER OF ATOMS
16315
ITEM: BOX BOUNDS ss pp pp
-63.917 115.825
0 32.3572
0 30.4841
ITEM: ATOMS id type x y z c_cna c_csd 
795 4 -62.4799 1.24451 1.2031 5 12.3904 
1171 4 -60.3243 2.48902 1.2031 1 6.99402e-16 
1174 4 -58.1688 1.24451 1.2031 1 1.20261e-15 
1563 4 -56.0132 2.48902 1.2031 1 4.64676e-09 
1565 1 -53.8576 1.24451 1.20307 1 6.59995e-09 
1951 1 -51.7021 2.48902 1.20299 1 7.02187e-10 
1954 1 -49.5464 1.24451 1.20293 1 4.02626e-09 
2343 1 -47.3908 2.48902 1.20291 1 2.28651e-08 
2345 1 -45.2353 1.24451 1.20299 1 1.99133e-09 
2731 1 -43.0797 2.48902 1.20309 1 7.24434e-10 
2734 1 -40.9241 1.24451 1.2032 1 2.19661e-09 
3123 1 -38.7685 2.48902 1.20334 1 3.45442e-09 
3125 1 -36.6129 1.24451 1.20351 1 5.56729e-10 
3511 1 -34.4574 2.48902 1.20368 1 3.86247e-09 
3514 1 -32.3018 1.24451 1.20389 1 7.201e-09 
3903 1 -30.1462 2.48902 1.20415 1 2.55946e-09 
3905 1 -27.9907 1.24451 1.20442 1 1.75983e-08 
4291 1 -25.8351 2.48902 1.20467 1 9.24647e-08 
4294 1 -23.6796 1.24451 1.20485 1 4.57664e-07 
4683 1 -21.5242 2.48902 1.20503 1 2.144e-06 
4685 1 -19.3689 1.24451 1.20518 1 9.49839e-06 
5058 1 -17.2139 2.48902 1.20526 1 4.2908e-05 
5061 1 -15.0593 1.24451 1.20512 1 0.000183984 
5359 1 -12.9056 2.48902 1.20456 1 0.000764356 
5361 1 -10.7528 1.24451 1.20358 1 0.0031924 
5578 1 -8.60012 2.48902 1.20406 1 0.0156037 
5581 1 -6.44373 1.24451 1.23104 1 0.0950625 
5723 1 -4.2838 2.48902 1.39138 1 0.237971 
4947 1 -0.760072 2.48902 0.09057 5 4.3744 
5725 1 -2.15233 1.24451 1.76973 5 3.51239 
5786 2 0.195328 1.24451 2.09673 5 3.54574 
5787 2 1.51422 1.24451 0.0651245 1 0.131258 
5818 2 2.32207 2.48902 2.0922 1 0.0214485 
5820 2 4.46509 1.24451 2.09176 1 0.00448465 
5829 2 3.7085 2.48902 0.0612115 1 0.0206252 
5828 2 5.87986 1.24451 0.0606372 1 0.00341578 
5956 2 6.61456 2.48902 2.0925 1 0.000945704 
5953 2 8.04184 2.48902 0.0606873 1 0.000563284 
5954 2 8.76723 1.24451 2.09287 1 0.000196963 
5955 2 10.2 1.24451 0.0607675 1 9.18229e-05 
6164 2 10.9214 2.48902 2.09305 1 3.99524e-05 
6166 2 13.0764 1.24451 2.09318 1 7.93907e-06 
6199 2 12.3567 2.48902 0.0608651 1 1.46605e-05 
6198 2 14.5127 1.24451 0.0609571 1 2.25485e-06 
6506 2 15.2318 2.48902 2.09327 1 1.51883e-06 
6503 2 16.6685 2.48902 0.0610489 1 3.31502e-07 
6504 2 17.3872 1.24451 2.09335 1 2.81234e-07 
6505 2 18.8242 1.24451 0.0611161 1 5.43713e-08 
6867 2 19.5428 2.48902 2.09341 1 6.83501e-08 
6869 2 21.6984 1.24451 2.09347 1 1.56228e-08 
6917 2 23.1354 1.24451 0.0612244 1 1.18433e-09 
6918 2 20.9798 2.48902 0.0611781 1 7.74273e-09 
7282 2 25.291 2.48902 0.0612883 1 4.67496e-10 
7285 2 23.854 2.48902 2.09351 1 4.06229e-09 
796 4 -62.4799 3.73352 1.2031 5 12.3904 
1176 4 -60.3243 4.97803 1.2031 1 6.99401e-16 
1178 4 -58.1688 3.73352 1.2031 1 1.1994e-15 
1562 4 -56.0132 4.97803 1.2031 1 4.64676e-09 
1566 1 -53.8576 3.73352 1.20307 1 6.59995e-09 
1956 1 -51.7021 4.97803 1.20299 1 7.02187e-10 
1958 1 -49.5464 3.73352 1.20293 1 4.02626e-09 
2342 1 -47.3908 4.97803 1.20291 1 2.28651e-08 
2346 1 -45.2353 3.73352 1.20299 1 1.99133e-09 
2736 1 -43.0797 4.97803 1.20309 1 7.24434e-10 
2738 1 -40.9241 3.73352 1.2032 1 2.19661e-09 
3122 1 -38.7685 4.97803 1.20334 1 3.45442e-09 
3126 1 -36.6129 3.73352 1.20351 1 5.56729e-10 
3516 1 -34.4574 4.97803 1.20368 1 3.86247e-09 
3518 1 -32.3018 3.73352 1.20389 1 7.201e-09 
3902 1 -30.1462 4.97803 1.20415 1 2.55946e-09 
3906 1 -27.9907 3.73352 1.20442 1 1.75983e-08 
4296 1 -25.8351 4.97803 1.20467 1 9.24647e-08 
4298 1 -23.6796 3.73352 1.20485 1 4.57664e-07 
4682 1 -21.5242 4.97803 1.20503 1 2.144e-06 
4686 1 -19.3689 3.73352 1.20518 1 9.49839e-06 
5063 1 -17.2139 4.97803 1.20526 1 4.2908e-05 
5065 1 -15.0593 3.73352 1.20512 1 0.000183984 
5358 1 -12.9056 4.97803 1.20456 1 0.000764356 
5362 1 -10.7528 3.73352 1.20358 1 0.0031924 
5583 1 -8.60012 4.97803 1.20406 1 0.0156037 
5585 1 -6.44373 3.73352 1.23104 1 0.0950625 
5722 1 -4.2838 4.97803 1.39138 1 0.237971 
4944 1 -0.760072 4.97803 0.09057 5 4.3744 
5726 1 -2.15233 3.73352 1.76973 5 3.51239 
5788 2 0.195328 3.73352 2.09673 5 3.54574 
5789 2 1.51422 3.73352 0.0651245 1 0.131258 
5833 2 2.32207 4.97803 2.0922 1 0.0214485 
5830 2 3.7085 4.97803 0.0612115 1 0.0206252 
5831 2 4.46509 3.73352 2.09176 1 0.00448465 
5832 2 5.87986 3.73352 0.0606372 1 0.00341578 
5957 2 6.61456 4.97803 2.0925 1 0.000945704 
5959 2 8.76723 3.73352 2.09287 1 0.000196963 
5979 2 10.2 3.73352 0.0607675 1 9.18229e-05 
5980 2 8.04184 4.97803 0.0606873 1 0.000563284 
6200 2 12.3567 4.97803 0.0608651 1 1.46605e-05 
6201 2 13.0764 3.73352 2.09318 1 7.93907e-06 
6203 2 10.9214 4.97803 2.09305 1 3.99524e-05 
6202 2 14.5127 3.73352 0.0609571 1 2.25485e-06 
6507 2 15.2318 4.97803 2.09327 1 1.51883e-06 
6509 2 17.3872 3.73352 2.09335 1 2.81234e-07 
6553 2 16.6685 4.97803 0.0610489 1 3.31502e-07 
6552 2 18.8242 3.73352 0.0611161 1 5.43713e-08 
6922 2 19.5428 4.97803 2.09341 1 6.83501e-08 
6919 2 20.9798 4.97803 0.0611781 1 7.74273e-09 
6920 2 21.6984 3.73352 2.09347 1 1.56228e-08 
6921 2 23.1354 3.73352 0.0612244 1 1.18433e-09 
7286 2 23.854 4.97803 2.09351 1 4.06229e-09 
7333 2 25.291 4.97803 0.0612883 1 4.67496e-10 
801 4 -62.4799 6.22254 1.2031 5 12.3904 
1175 4 -60.3243 7.46705 1.2031 1 6.994e-16 
1179 4 -58.1688 6.22254 1.2031 1 1.1994e-15 
1571 4 -56.0132 7.46705 1.2031 1 4.64676e-09 
1573 1 -53.8576 6.22254 1.20307 1 6.59995e-09 
1955 1 -51.7021 7.46705 1.20299 1 7.02187e-10 
1959 1 -49.5464 6.22254 1.20293 1 4.02626e-09 
2351 1 -47.3908 7.46705 1.20291 1 2.28651e-08 
2353 1 -45.2353 6.22254 1.20299 1 1.99133e-09 
2735 1 -43.0797 7.46705 1.20309 1 7.24434e-10 
2739 1 -40.9241 6.22254 1.2032 1 2.19661e-09 
3131 1 -38.7685 7.46705 1.20334 1 3.45442e-09 
3133 1 -36.6129 6.22254 1.20351 1 5.56729e-10 
3515 1 -34.4574 7.46705 1.20368 1 3.86247e-09 
3519 1 -32.3018 6.22254 1.20389 1 7.201e-09 
3911 1 -30.1462 7.46705 1.20415 1 2.55946e-09 
3913 1 -27.9907 6.22254 1.20442 1 1.75983e-08 
4295 1 -25.8351 7.46705 1.20467 1 9.24647e-08 
4299 1 -23.6796 6.22254 1.20485 1 4.57664e-07 
4691 1 -21.5242 7.46705 1.20503 1 2.144e-06 
4693 1 -19.3689 6.22254 1.20518 1 9.49839e-06 
5062 1 -17.2139 7.46705 1.20526 1 4.2908e-05 
5066 1 -15.0593 6.22254 1.20512 1 0.000183984 
5367 1 -12.9056 7.46705 1.20456 1 0.000764356 
5369 1 -10.7528 6.22254 1.20358 1 0.0031924 
5582 1 -8.60012 7.46705 1.20406 1 0.0156037 
5586 1 -6.44373 6.22254 1.23104 1 0.0950625 
5731 1 -4.2838 7.46705 1.39138 1 0.237971 
4985 1 -0.760072 7.46705 0.09057 5 4.3744 
5733 1 -2.15233 6.22254 1.76973 5 3.51239 
5790 2 0.195328 6.22254 2.09673 5 3.54574 
5791 2 1.51422 6.22254 0.0651245 1 0.131258 
5834 2 2.32207 7.46705 2.0922 1 0.0214485 
5836 2 4.46509 6.22254 2.09176 1 0.00448465 
5845 2 3.7085 7.46705 0.0612115 1 0.0206252 
5844 2 5.87986 6.22254 0.0606372 1 0.00341578 
5984 2 6.61456 7.46705 2.0925 1 0.000945704 
5981 2 8.04184 7.46705 0.0606873 1 0.000563284 
5982 2 8.76723 6.22254 2.09287 1 0.000196963 
5983 2 10.2 6.22254 0.0607675 1 9.18229e-05 
6204 2 10.9214 7.46705 2.09305 1 3.99524e-05 
6206 2 13.0764 6.22254 2.09318 1 7.93907e-06 
6239 2 12.3567 7.46705 0.0608651 1 1.46605e-05 
6238 2 14.5127 6.22254 0.0609571 1 2.25485e-06 
6557 2 15.2318 7.46705 2.09327 1 1.51883e-06 
6554 2 16.6685 7.46705 0.0610489 1 3.31502e-07 
6555 2 17.3872 6.22254 2.09335 1 2.81234e-07 
6556 2 18.8242 6.22254 0.0611161 1 5.43713e-08 
6923 2 19.5428 7.46705 2.09341 1 6.83501e-08 
6925 2 21.6984 6.22254 2.09347 1 1.56228e-08 
6965 2 23.1354 6.22254 0.0612244 1 1.18433e-09 
6966 2 20.9798 7.46705 0.0611781 1 7.74273e-09 
7334 2 25.291 7.46705 0.0612883 1 4.67496e-10 
7337 2 23.854 7.46705 2.09351 1 4.06229e-09 
802 4 -62.4799 8.71156 1.2031 5 12.3904 
1188 4 -60.3243 9.95606 1.2031 1 6.96209e-16 
1190 4 -58.1688 8.71156 1.2031 1 1.1994e-15 
1570 4 -56.0132 9.95606 1.2031 1 4.64676e-09 
1574 1 -53.8576 8.71156 1.20307 1 6.59995e-09 
1968 1 -51.7021 9.95606 1.20299 1 7.02187e-10 
1970 1 -49.5464 8.71156 1.20293 1 4.02626e-09 
2350 1 -47.3908 9.95606 1.20291 1 2.28651e-08 
2354 1 -45.2353 8.71156 1.20299 1 1.99133e-09 
2748 1 -43.0797 9.95606 1.20309 1 7.24434e-10 
2750 1 -40.9241 8.71156 1.2032 1 2.19661e-09 
3130 1 -38.7685 9.95606 1.20334 1 3.45442e-09 
3134 1 -36.6129 8.71156 1.20351 1 5.56729e-10 
3528 1 -34.4574 9.95606 1.20368 1 3.86247e-09 
3530 1 -32.3018 8.71156 1.20389 1 7.201e-09 
3910 1 -30.1462 9.95606 1.20415 1 2.55946e-09 
3914 1 -27.9907 8.71156 1.20442 1 1.75983e-08 
4308 1 -25.8351 9.95606 1.20467 1 9.24647e-08 
4310 1 -23.6796 8.71156 1.20485 1 4.57664e-07 
4690 1 -21.5242 9.95606 1.20503 1 2.144e-06 
4694 1 -19.3689 8.71156 1.20518 1 9.49839e-06 
5075 1 -17.2139 9.95606 1.20526 1 4.2908e-05 
5077 1 -15.0593 8.71156 1.20512 1 0.000183984 
5366 1 -12.9056 9.95606 1.20456 1 0.000764356 
5370 1 -10.7528 8.71156 1.20358 1 0.0031924 
5595 1 -8.60012 9.95606 1.20406 1 0.0156037 
5597 1 -6.44373 8.71156 1.23104 1 0.0950625 
5730 1 -4.2838 9.95606 1.39138 1 0.237971 
4982 1 -0.760072 9.95606 0.09057 5 4.3744 
5734 1 -2.15233 8.71156 1.76973 5 3.51239 
5792 2 0.195328 8.71156 2.09673 5 3.54574 
5793 2 1.51422 8.71156 0.0651245 1 0.131258 
5849 2 2.32207 9.95606 2.0922 1 0.0214485 
5846 2 3.7085 9.95606 0.0612115 1 0.0206252 
5847 2 4.46509 8.71156 2.09176 1 0.00448465 
5848 2 5.87986 8.71156 0.0606372 1 0.00341578 
5985 2 6.61456 9.95606 2.0925 1 0.000945704 
5987 2 8.76723 8.71156 2.09287 1 0.000196963 
6007 2 10.2 8.71156 0.0607675 1 9.18229e-05 
6008 2 8.04184 9.95606 0.0606873 1 0.000563284 
6240 2 12.3567 9.95606 0.0608651 1 1.46605e-05 
6241 2 13.0764 8.71156 2.09318 1 7.93907e-06 
6243 2 10.9214 9.95606 2.09305 1 3.99524e-05 
6242 2 14.5127 8.71156 0.0609571 1 2.25485e-06 
6558 2 15.2318 9.95606 2.09327 1 1.51883e-06 
6560 2 17.3872 8.71156 2.09335 1 2.81234e-07 
6597 2 16.6685 9.95606 0.0610489 1 3.31502e-07 
6596 2 18.8242 8.71156 0.0611161 1 5.43713e-08 
6970 2 19.5428 9.95606 2.09341 1 6.83501e-08 
6967 2 20.9798 9.95606 0.0611781 1 7.74273e-09 
6968 2 21.6984 8.71156 2.09347 1 1.56228e-08 
6969 2 23.1354 8.71156 0.0612244 1 1.18433e-09 
7338 2 23.854 9.95606 2.09351 1 4.06229e-09 
7377 2 25.291 9.95606 0.0612883 1 4.67496e-10 
815 4 -62.4799 11.2006 1.2031 5 12.3904 
1187 4 -60.3243 12.4451 1.2031 1 6.99402e-16 
1191 4 -58.1688 11.2006 1.2031 1 1.19621e-15 
1587 4 -56.0132 12.4451 1.2031 1 4.64676e-09 
1589 1 -53.8576 11.2006 1.20307 1 6.59995e-09 
1967 1 -51.7021 12.4451 1.20299 1 7.02187e-10 
1971 1 -49.5464 11.2006 1.20293 1 4.02626e-09 
2367 1 -47.3908 12.4451 1.20291 1 2.28651e-08 
2369 1 -45.2353 11.2006 1.20299 1 1.99133e-09 
2747 1 -43.0797 12.4451 1.20309 1 7.24434e-10 
2751 1 -40.9241 11.2006 1.2032 1 2.19661e-09 
3147 1 -38.7685 12.4451 1.20334 1 3.45442e-09 
3149 1 -36.6129 11.2006 1.20351 1 5.56729e-10 
3527 1 -34.4574 12.4451 1.20368 1 3.86247e-09 
3531 1 -32.3018 11.2006 1.20389 1 7.201e-09 
3927 1 -30.1462 12.4451 1.20415 1 2.55946e-09 
3929 1 -27.9907 11.2006 1.20442 1 1.75983e-08 
4307 1 -25.8351 12.4451 1.20467 1 9.24647e-08 
4311 1 -23.6796 11.2006 1.20485 1 4.57664e-07 
4707 1 -21.5242 12.4451 1.20503 1 2.144e-06 
4709 1 -19.3689 11.2006 1.20518 1 9.49839e-06 
5074 1 -17.2139 12.4451 1.20526 1 4.2908e-05 
5078 1 -15.0593 11.2006 1.20512 1 0.000183984 
5383 1 -12.9056 12.4451 1.20456 1 0.000764356 
5385 1 -10.7528 11.2006 1.20358 1 0.0031924 
5594 1 -8.60012 12.4451 1.20406 1 0.0156037 
5598 1 -6.44373 11.2006 1.23104 1 0.0950625 
5741 1 -4.2838 12.4451 1.39138 1 0.237971 
5015 1 -0.760072 12.4451 0.09057 5 4.3744 
5743 1 -2.15233 11.2006 1.76973 5 3.51239 
5794 2 0.195328 11.2006 2.09673 5 3.54574 
5795 2 1.51422 11.2006 0.0651245 1 0.131258 
5850 2 2.32207 12.4451 2.0922 1 0.0214485 
5852 2 4.46509 11.2006 2.09176 1 0.00448465 
5861 2 3.7085 12.4451 0.0612115 1 0.0206252 
5860 2 5.87986 11.2006 0.0606372 1 0.00341578 
6012 2 6.61456 12.4451 2.0925 1 0.000945704 
6009 2 8.04184 12.4451 0.0606873 1 0.000563284 
6010 2 8.76723 11.2006 2.09287 1 0.000196963 
6011 2 10.2 11.2006 0.0607675 1 9.18229e-05 
6244 2 10.9214 12.4451 2.09305 1 3.99524e-05 
6246 2 13.0764 11.2006 2.09318 1 7.93907e-06 
6278 2 12.3567 12.4451 0.0608651 1 1.46605e-05 
6277 2 14.5127 11.2006 0.0609571 1 2.25485e-06 
6601 2 15.2318 12.4451 2.09327 1 1.51883e-06 
6598 2 16.6685 12.4451 0.0610489 1 3.31502e-07 
6599 2 17.3872 11.2006 2.09335 1 2.81234e-07 
6600 2 18.8242 11.2006 0.0611161 1 5.43713e-08 
6971 2 19.5428 12.4451 2.09341 1 6.83501e-08 
6973 2 21.6984 11.2006 2.09347 1 1.56228e-08 
7005 2 23.1354 11.2006 0.0612244 1 1.18433e-09 
7006 2 20.9798 12.4451 0.0611781 1 7.74273e-09 
7378 2 25.291 12.4451 0.0612883 1 4.67496e-10 
7381 2 23.854 12.4451 2.09351 1 4.06229e-09 
816 4 -62.4799 13.6896 1.2031 5 12.3904 
837 4 -62.4799 16.1786 1.2031 5 12.3904 
1208 4 -60.3243 14.9341 1.2031 1 6.99401e-16 
1210 4 -58.1688 13.6896 1.2031 1 1.1994e-15 
1211 4 -58.1688 16.1786 1.2031 1 1.1994e-15 
1586 4 -56.0132 14.9341 1.2031 1 4.64676e-09 
1590 1 -53.8576 13.6896 1.20307 1 6.59995e-09 
1613 1 -53.8576 16.1786 1.20307 1 6.59995e-09 
1988 1 -51.7021 14.9341 1.20299 1 7.02187e-10 
1990 1 -49.5464 13.6896 1.20293 1 4.02626e-09 
1991 1 -49.5464 16.1786 1.20293 1 4.02626e-09 
2366 1 -47.3908 14.9341 1.20291 1 2.28651e-08 
2370 1 -45.2353 13.6896 1.20299 1 1.99133e-09 
2393 1 -45.2353 16.1786 1.20299 1 1.99133e-09 
2768 1 -43.0797 14.9341 1.20309 1 7.24434e-10 
2770 1 -40.9241 13.6896 1.2032 1 2.19661e-09 
2771 1 -40.9241 16.1786 1.2032 1 2.19661e-09 
3146 1 -38.7685 14.9341 1.20334 1 3.45442e-09 
3150 1 -36.6129 13.6896 1.20351 1 5.56729e-10 
3173 1 -36.6129 16.1786 1.20351 1 5.56729e-10 
3548 1 -34.4574 14.9341 1.20368 1 3.86247e-09 
3550 1 -32.3018 13.6896 1.20389 1 7.201e-09 
3551 1 -32.3018 16.1786 1.20389 1 7.201e-09 
3926 1 -30.1462 14.9341 1.20415 1 2.55946e-09 
3930 1 -27.9907 13.6896 1.20442 1 1.75983e-08 
3953 1 -27.9907 16.1786 1.20442 1 1.75983e-08 
4328 1 -25.8351 14.9341 1.20467 1 9.24647e-08 
4330 1 -23.6796 13.6896 1.20485 1 4.57664e-07 
4331 1 -23.6796 16.1786 1.20485 1 4.57664e-07 
4706 1 -21.5242 14.9341 1.20503 1 2.144e-06 
4710 1 -19.3689 13.6896 1.20518 1 9.49839e-06 
4733 1 -19.3689 16.1786 1.20518 1 9.49839e-06 
5095 1 -17.2139 14.9341 1.20526 1 4.2908e-05 
5097 1 -15.0593 13.6896 1.20512 1 0.000183984 
5098 1 -15.0593 16.1786 1.20512 1 0.000183984 
5382 1 -12.9056 14.9341 1.20456 1 0.000764356 
5386 1 -10.7528 13.6896 1.20358 1 0.0031924 
5409 1 -10.7528 16.1786 1.20358 1 0.0031924 
5615 1 -8.60012 14.9341 1.20406 1 0.0156037 
5617 1 -6.44373 13.6896 1.23104 1 0.0950625 
5618 1 -6.44373 16.1786 1.23104 1 0.0950625 
5740 1 -4.2838 14.9341 1.39138 1 0.237971 
5012 1 -0.760072 14.9341 0.09057 5 4.3744 
5744 1 -2.15233 13.6896 1.76973 5 3.51239 
5753 1 -2.15233 16.1786 1.76973 5 3.51239 
5796 2 0.195328 13.6896 2.09673 5 3.54574 
5798 2 0.195328 16.1786 2.09673 5 3.54574 
5797 2 1.51422 13.6896 0.0651245 1 0.131258 
5799 2 1.51422 16.1786 0.0651245 1 0.131258 
5865 2 2.32207 14.9341 2.0922 1 0.0214485 
5862 2 3.7085 14.9341 0.0612115 1 0.0206252 
5863 2 4.46509 13.6896 2.09176 1 0.00448465 
5868 2 4.46509 16.1786 2.09176 1 0.00448465 
5864 2 5.87986 13.6896 0.0606372 1 0.00341578 
5876 2 5.87986 16.1786 0.0606372 1 0.00341578 
6013 2 6.61456 14.9341 2.0925 1 0.000945704 
6015 2 8.76723 13.6896 2.09287 1 0.000196963 
6035 2 10.2 13.6896 0.0607675 1 9.18229e-05 
6036 2 8.04184 14.9341 0.0606873 1 0.000563284 
6038 2 8.76723 16.1786 2.09287 1 0.000196963 
6039 2 10.2 16.1786 0.0607675 1 9.18229e-05 
6279 2 12.3567 14.9341 0.0608651 1 1.46605e-05 
6280 2 13.0764 13.6896 2.09318 1 7.93907e-06 
6282 2 10.9214 14.9341 2.09305 1 3.99524e-05 
6285 2 13.0764 16.1786 2.09318 1 7.93907e-06 
6281 2 14.5127 13.6896 0.0609571 1 2.25485e-06 
6309 2 14.5127 16.1786 0.0609571 1 2.25485e-06 
6602 2 15.2318 14.9341 2.09327 1 1.51883e-06 
6604 2 17.3872 13.6896 2.09335 1 2.81234e-07 
6633 2 16.6685 14.9341 0.0610489 1 3.31502e-07 
6635 2 17.3872 16.1786 2.09335 1 2.81234e-07 
6632 2 18.8242 13.6896 0.0611161 1 5.43713e-08 
6636 2 18.8242 16.1786 0.0611161 1 5.43713e-08 
7010 2 19.5428 14.9341 2.09341 1 6.83501e-08 
7007 2 20.9798 14.9341 0.0611781 1 7.74273e-09 
7008 2 21.6984 13.6896 2.09347 1 1.56228e-08 
7009 2 23.1354 13.6896 0.0612244 1 1.18433e-09 
7013 2 21.6984 16.1786 2.09347 1 1.56228e-08 
7037 2 23.1354 16.1786 0.0612244 1 1.18433e-09 
7382 2 23.854 14.9341 2.09351 1 4.06229e-09 
7413 2 25.291 14.9341 0.0612883 1 4.67496e-10 
838 4 -62.4799 18.6676 1.2031 5 12.3904 
1207 4 -60.3243 17.4231 1.2031 1 6.99401e-16 
1238 4 -58.1688 18.6676 1.2031 1 1.1994e-15 
1611 4 -56.0132 17.4231 1.2031 1 4.64676e-09 
1614 1 -53.8576 18.6676 1.20307 1 6.59995e-09 
1987 1 -51.7021 17.4231 1.20299 1 7.02187e-10 
2018 1 -49.5464 18.6676 1.20293 1 4.02626e-09 
2391 1 -47.3908 17.4231 1.20291 1 2.28651e-08 
2394 1 -45.2353 18.6676 1.20299 1 1.99133e-09 
2767 1 -43.0797 17.4231 1.20309 1 7.24434e-10 
2798 1 -40.9241 18.6676 1.2032 1 2.19661e-09 
3171 1 -38.7685 17.4231 1.20334 1 3.45442e-09 
3174 1 -36.6129 18.6676 1.20351 1 5.56729e-10 
3547 1 -34.4574 17.4231 1.20368 1 3.86247e-09 
3578 1 -32.3018 18.6676 1.20389 1 7.201e-09 
3951 1 -30.1462 17.4231 1.20415 1 2.55946e-09 
3954 1 -27.9907 18.6676 1.20442 1 1.75983e-08 
4327 1 -25.8351 17.4231 1.20467 1 9.24647e-08 
4358 1 -23.6796 18.6676 1.20485 1 4.57664e-07 
4731 1 -21.5242 17.4231 1.20503 1 2.144e-06 
4734 1 -19.3689 18.6676 1.20518 1 9.49839e-06 
5094 1 -17.2139 17.4231 1.20526 1 4.2908e-05 
5125 1 -15.0593 18.6676 1.20512 1 0.000183984 
5407 1 -12.9056 17.4231 1.20456 1 0.000764356 
5410 1 -10.7528 18.6676 1.20358 1 0.0031924 
5614 1 -8.60012 17.4231 1.20406 1 0.0156037 
5639 1 -6.44373 18.6676 1.23104 1 0.0950625 
5751 1 -4.2838 17.4231 1.39138 1 0.237971 
5037 1 -0.760072 17.4231 0.09057 5 4.3744 
5754 1 -2.15233 18.6676 1.76973 5 3.51239 
5800 2 0.195328 18.6676 2.09673 5 3.54574 
5801 2 1.51422 18.6676 0.0651245 1 0.131258 
5866 2 2.32207 17.4231 2.0922 1 0.0214485 
5877 2 3.7085 17.4231 0.0612115 1 0.0206252 
5879 2 4.46509 18.6676 2.09176 1 0.00448465 
5880 2 5.87986 18.6676 0.0606372 1 0.00341578 
6040 2 6.61456 17.4231 2.0925 1 0.000945704 
6037 2 8.04184 17.4231 0.0606873 1 0.000563284 
6043 2 8.76723 18.6676 2.09287 1 0.000196963 
6062 2 10.2 18.6676 0.0607675 1 9.18229e-05 
6283 2 10.9214 17.4231 2.09305 1 3.99524e-05 
6310 2 12.3567 17.4231 0.0608651 1 1.46605e-05 
6312 2 13.0764 18.6676 2.09318 1 7.93907e-06 
6313 2 14.5127 18.6676 0.0609571 1 2.25485e-06 
6637 2 15.2318 17.4231 2.09327 1 1.51883e-06 
6634 2 16.6685 17.4231 0.0610489 1 3.31502e-07 
6640 2 17.3872 18.6676 2.09335 1 2.81234e-07 
6660 2 18.8242 18.6676 0.0611161 1 5.43713e-08 
7011 2 19.5428 17.4231 2.09341 1 6.83501e-08 
7038 2 20.9798 17.4231 0.0611781 1 7.74273e-09 
7040 2 21.6984 18.6676 2.09347 1 1.56228e-08 
7041 2 23.1354 18.6676 0.0612244 1 1.18433e-09 
7414 2 25.291 17.4231 0.0612883 1 4.67496e-10 
7417 2 23.854 17.4231 2.09351 1 4.06229e-09 
867 4 -62.4799 21.1566 1.2031 5 12.3904 
1236 4 -60.3243 19.9121 1.2031 1 6.99401e-16 
1239 4 -58.1688 21.1566 1.2031 1 1.1994e-15 
1610 4 -56.0132 19.9121 1.2031 1 4.64676e-09 
1645 1 -53.8576 21.1566 1.20307 1 6.59995e-09 
2016 1 -51.7021 19.9121 1.20299 1 7.02187e-10 
2019 1 -49.5464 21.1566 1.20293 1 4.02626e-09 
2390 1 -47.3908 19.9121 1.20291 1 2.28651e-08 
2425 1 -45.2353 21.1566 1.20299 1 1.99133e-09 
2796 1 -43.0797 19.9121 1.20309 1 7.24434e-10 
2799 1 -40.9241 21.1566 1.2032 1 2.19661e-09 
3170 1 -38.7685 19.9121 1.20334 1 3.45442e-09 
3205 1 -36.6129 21.1566 1.20351 1 5.56729e-10 
3576 1 -34.4574 19.9121 1.20368 1 3.86247e-09 
3579 1 -32.3018 21.1566 1.20389 1 7.201e-09 
3950 1 -30.1462 19.9121 1.20415 1 2.55946e-09 
3985 1 -27.9907 21.1566 1.20442 1 1.75983e-08 
4356 1 -25.8351 19.9121 1.20467 1 9.24647e-08 
4359 1 -23.6796 21.1566 1.20485 1 4.57664e-07 
4730 1 -21.5242 19.9121 1.20503 1 2.144e-06 
4765 1 -19.3689 21.1566 1.20518 1 9.49839e-06 
5123 1 -17.2139 19.9121 1.20526 1 4.2908e-05 
5126 1 -15.0593 21.1566 1.20512 1 0.000183984 
5406 1 -12.9056 19.9121 1.20456 1 0.000764356 
5441 1 -10.7528 21.1566 1.20358 1 0.0031924 
5637 1 -8.60012 19.9121 1.20406 1 0.0156037 
5640 1 -6.44373 21.1566 1.23104 1 0.0950625 
5750 1 -4.2838 19.9121 1.39138 1 0.237971 
5034 1 -0.760072 19.9121 0.09057 5 4.3744 
5763 1 -2.15233 21.1566 1.76973 5 3.51239 
5802 2 0.195328 21.1566 2.09673 5 3.54574 
5803 2 1.51422 21.1566 0.0651245 1 0.131258 
5881 2 2.32207 19.9121 2.0922 1 0.0214485 
5878 2 3.7085 19.9121 0.0612115 1 0.0206252 
5884 2 4.46509 21.1566 2.09176 1 0.00448465 
5892 2 5.87986 21.1566 0.0606372 1 0.00341578 
6041 2 6.61456 19.9121 2.0925 1 0.000945704 
6063 2 8.04184 19.9121 0.0606873 1 0.000563284 
6065 2 8.76723 21.1566 2.09287 1 0.000196963 
6066 2 10.2 21.1566 0.0607675 1 9.18229e-05 
6311 2 12.3567 19.9121 0.0608651 1 1.46605e-05 
6314 2 10.9214 19.9121 2.09305 1 3.99524e-05 
6317 2 13.0764 21.1566 2.09318 1 7.93907e-06 
6333 2 14.5127 21.1566 0.0609571 1 2.25485e-06 
6638 2 15.2318 19.9121 2.09327 1 1.51883e-06 
6661 2 16.6685 19.9121 0.0610489 1 3.31502e-07 
6663 2 17.3872 21.1566 2.09335 1 2.81234e-07 
6664 2 18.8242 21.1566 0.0611161 1 5.43713e-08 
7042 2 19.5428 19.9121 2.09341 1 6.83501e-08 
7039 2 20.9798 19.9121 0.0611781 1 7.74273e-09 
7045 2 21.6984 21.1566 2.09347 1 1.56228e-08 
7061 2 23.1354 21.1566 0.0612244 1 1.18433e-09 
7418 2 23.854 19.9121 2.09351 1 4.06229e-09 
7441 2 25.291 19.9121 0.0612883 1 4.67496e-10 
868 4 -62.4799 23.6457 1.2031 5 12.3904 
1235 4 -60.3243 22.4011 1.2031 1 6.994e-16 
1274 4 -58.1688 23.6457 1.2031 1 1.1994e-15 
1643 4 -56.0132 22.4011 1.2031 1 4.64676e-09 
1646 1 -53.8576 23.6457 1.20307 1 6.59995e-09 
2015 1 -51.7021 22.4011 1.20299 1 7.02187e-10 
2054 1 -49.5464 23.6457 1.20293 1 4.02626e-09 
2423 1 -47.3908 22.4011 1.20291 1 2.28651e-08 
2426 1 -45.2353 23.6457 1.20299 1 1.99133e-09 
2795 1 -43.0797 22.4011 1.20309 1 7.24434e-10 
2834 1 -40.9241 23.6457 1.2032 1 2.19661e-09 
3203 1 -38.7685 22.4011 1.20334 1 3.45442e-09 
3206 1 -36.6129 23.6457 1.20351 1 5.56729e-10 
3575 1 -34.4574 22.4011 1.20368 1 3.86247e-09 
3614 1 -32.3018 23.6457 1.20389 1 7.201e-09 
3983 1 -30.1462 22.4011 1.20415 1 2.55946e-09 
3986 1 -27.9907 23.6457 1.20442 1 1.75983e-08 
4355 1 -25.8351 22.4011 1.20467 1 9.24647e-08 
4394 1 -23.6796 23.6457 1.20485 1 4.57664e-07 
4763 1 -21.5242 22.4011 1.20503 1 2.144e-06 
4766 1 -19.3689 23.6457 1.20518 1 9.49839e-06 
5122 1 -17.2139 22.4011 1.20526 1 4.2908e-05 
5161 1 -15.0593 23.6457 1.20512 1 0.000183984 
5439 1 -12.9056 22.4011 1.20456 1 0.000764356 
5442 1 -10.7528 23.6457 1.20358 1 0.0031924 
5636 1 -8.60012 22.4011 1.20406 1 0.0156037 
5661 1 -6.44373 23.6457 1.23104 1 0.0950625 
5761 1 -4.2838 22.4011 1.39138 1 0.237971 
5051 1 -0.760072 22.4011 0.09057 5 4.3744 
5764 1 -2.15233 23.6457 1.76973 5 3.51239 
5804 2 0.195328 23.6457 2.09673 5 3.54574 
5805 2 1.51422 23.6457 0.0651245 1 0.131258 
5882 2 2.32207 22.4011 2.0922 1 0.0214485 
5893 2 3.7085 22.4011 0.0612115 1 0.0206252 
5895 2 4.46509 23.6457 2.09176 1 0.00448465 
5896 2 5.87986 23.6457 0.0606372 1 0.00341578 
6067 2 6.61456 22.4011 2.0925 1 0.000945704 
6064 2 8.04184 22.4011 0.0606873 1 0.000563284 
6070 2 8.76723 23.6457 2.09287 1 0.000196963 
6082 2 10.2 23.6457 0.0607675 1 9.18229e-05 
6315 2 10.9214 22.4011 2.09305 1 3.99524e-05 
6334 2 12.3567 22.4011 0.0608651 1 1.46605e-05 
6336 2 13.0764 23.6457 2.09318 1 7.93907e-06 
6337 2 14.5127 23.6457 0.0609571 1 2.25485e-06 
6665 2 15.2318 22.4011 2.09327 1 1.51883e-06 
6662 2 16.6685 22.4011 0.0610489 1 3.31502e-07 
6668 2 17.3872 23.6457 2.09335 1 2.81234e-07 
6680 2 18.8242 23.6457 0.0611161 1 5.43713e-08 
7043 2 19.5428 22.4011 2.09341 1 6.83501e-08 
7062 2 20.9798 22.4011 0.0611781 1 7.74273e-09 
7064 2 21.6984 23.6457 2.09347 1 1.56228e-08 
7065 2 23.1354 23.6457 0.0612244 1 1.18433e-09 
7442 2 25.291 22.4011 0.0612883 1 4.67496e-10 
7445 2 23.854 22.4011 2.09351 1 4.06229e-09 
905 4 -62.4799 26.1347 1.2031 5 12.3904 
1272 4 -60.3243 24.8902 1.2031 1 6.99401e-16 
1275 4 -58.1688 26.1347 1.2031 1 1.1994e-15 
1642 4 -56.0132 24.8902 1.2031 1 4.64676e-09 
1685 1 -53.8576 26.1347 1.20307 1 6.59995e-09 
2052 1 -51.7021 24.8902 1.20299 1 7.02187e-10 
2055 1 -49.5464 26.1347 1.20293 1 4.02626e-09 
2422 1 -47.3908 24.8902 1.20291 1 2.28651e-08 
2465 1 -45.2353 26.1347 1.20299 1 1.99133e-09 
2832 1 -43.0797 24.8902 1.20309 1 7.24434e-10 
2835 1 -40.9241 26.1347 1.2032 1 2.19661e-09 
3202 1 -38.7685 24.8902 1.20334 1 3.45442e-09 
3245 1 -36.6129 26.1347 1.20351 1 5.56729e-10 
3612 1 -34.4574 24.8902 1.20368 1 3.86247e-09 
3615 1 -32.3018 26.1347 1.20389 1 7.201e-09 
3982 1 -30.1462 24.8902 1.20415 1 2.55946e-09 
4025 1 -27.9907 26.1347 1.20442 1 1.75983e-08 
4392 1 -25.8351 24.8902 1.20467 1 9.24647e-08 
4395 1 -23.6796 26.1347 1.20485 1 4.57664e-07 
4762 1 -21.5242 24.8902 1.20503 1 2.144e-06 
4805 1 -19.3689 26.1347 1.20518 1 9.49839e-06 
5159 1 -17.2139 24.8902 1.20526 1 4.2908e-05 
5162 1 -15.0593 26.1347 1.20512 1 0.000183984 
5438 1 -12.9056 24.8902 1.20456 1 0.000764356 
5475 1 -10.7528 26.1347 1.20358 1 0.0031924 
5659 1 -8.60012 24.8902 1.20406 1 0.0156037 
5662 1 -6.44373 26.1347 1.23104 1 0.0950625 
5760 1 -4.2838 24.8902 1.39138 1 0.237971 
5048 1 -0.760072 24.8902 0.09057 5 4.3744 
5773 1 -2.15233 26.1347 1.76973 5 3.51239 
5806 2 0.195328 26.1347 2.09673 5 3.54574 
5807 2 1.51422 26.1347 0.0651245 1 0.131258 
5897 2 2.32207 24.8902 2.0922 1 0.0214485 
5894 2 3.7085 24.8902 0.0612115 1 0.0206252 
5900 2 4.46509 26.1347 2.09176 1 0.00448465 
5907 2 5.87986 26.1347 0.0606372 1 0.00341578 
6068 2 6.61456 24.8902 2.0925 1 0.000945704 
6083 2 8.04184 24.8902 0.0606873 1 0.000563284 
6085 2 8.76723 26.1347 2.09287 1 0.000196963 
6086 2 10.2 26.1347 0.0607675 1 9.18229e-05 
6335 2 12.3567 24.8902 0.0608651 1 1.46605e-05 
6338 2 10.9214 24.8902 2.09305 1 3.99524e-05 
6341 2 13.0764 26.1347 2.09318 1 7.93907e-06 
6349 2 14.5127 26.1347 0.0609571 1 2.25485e-06 
6666 2 15.2318 24.8902 2.09327 1 1.51883e-06 
6681 2 16.6685 24.8902 0.0610489 1 3.31502e-07 
6683 2 17.3872 26.1347 2.09335 1 2.81234e-07 
6684 2 18.8242 26.1347 0.0611161 1 5.43713e-08 
7066 2 19.5428 24.8902 2.09341 1 6.83501e-08 
7063 2 20.9798 24.8902 0.0611781 1 7.74273e-09 
7069 2 21.6984 26.1347 2.09347 1 1.56228e-08 
7077 2 23.1354 26.1347 0.0612244 1 1.18433e-09 
7446 2 23.854 24.8902 2.09351 1 4.06229e-09 
7461 2 25.291 24.8902 0.0612883 1 4.67496e-10 
906 4 -62.4799 28.6237 1.2031 5 12.3904 
1271 4 -60.3243 27.3792 1.2031 1 6.99401e-16 
1317 4 -58.1688 28.6237 1.2031 1 1.1994e-15 
1683 4 -56.0132 27.3792 1.2031 1 4.64676e-09 
1686 1 -53.8576 28.6237 1.20307 1 6.59995e-09 
2051 1 -51.7021 27.3792 1.20299 1 7.02187e-10 
2097 1 -49.5464 28.6237 1.20293 1 4.02626e-09 
2463 1 -47.3908 27.3792 1.20291 1 2.28651e-08 
2466 1 -45.2353 28.6237 1.20299 1 1.99133e-09 
2831 1 -43.0797 27.3792 1.20309 1 7.24434e-10 
2877 1 -40.9241 28.6237 1.2032 1 2.19661e-09 
3243 1 -38.7685 27.3792 1.20334 1 3.45442e-09 
3246 1 -36.6129 28.6237 1.20351 1 5.56729e-10 
3611 1 -34.4574 27.3792 1.20368 1 3.86247e-09 
3657 1 -32.3018 28.6237 1.20389 1 7.201e-09 
4023 1 -30.1462 27.3792 1.20415 1 2.55946e-09 
4026 1 -27.9907 28.6237 1.20442 1 1.75983e-08 
4391 1 -25.8351 27.3792 1.20467 1 9.24647e-08 
4437 1 -23.6796 28.6237 1.20485 1 4.57664e-07 
4803 1 -21.5242 27.3792 1.20503 1 2.144e-06 
4806 1 -19.3689 28.6237 1.20518 1 9.49839e-06 
5158 1 -17.2139 27.3792 1.20526 1 4.2908e-05 
5204 1 -15.0593 28.6237 1.20512 1 0.000183984 
5473 1 -12.9056 27.3792 1.20456 1 0.000764356 
5476 1 -10.7528 28.6237 1.20358 1 0.0031924 
5658 1 -8.60012 27.3792 1.20406 1 0.0156037 
5682 1 -6.44373 28.6237 1.23104 1 0.0950625 
5771 1 -4.2838 27.3792 1.39138 1 0.237971 
5057 1 -0.760072 27.3792 0.09057 5 4.3744 
5774 1 -2.15233 28.6237 1.76973 5 3.51239 
5808 2 0.195328 28.6237 2.09673 5 3.54574 
5809 2 1.51422 28.6237 0.0651245 1 0.131258 
5898 2 2.32207 27.3792 2.0922 1 0.0214485 
5908 2 3.7085 27.3792 0.0612115 1 0.0206252 
5910 2 4.46509 28.6237 2.09176 1 0.00448465 
5911 2 5.87986 28.6237 0.0606372 1 0.00341578 
6087 2 6.61456 27.3792 2.0925 1 0.000945704 
6084 2 8.04184 27.3792 0.0606873 1 0.000563284 
6090 2 8.76723 28.6237 2.09287 1 0.000196963 
6094 2 10.2 28.6237 0.0607675 1 9.18229e-05 
6339 2 10.9214 27.3792 2.09305 1 3.99524e-05 
6350 2 12.3567 27.3792 0.0608651 1 1.46605e-05 
6352 2 13.0764 28.6237 2.09318 1 7.93907e-06 
6353 2 14.5127 28.6237 0.0609571 1 2.25485e-06 
6685 2 15.2318 27.3792 2.09327 1 1.51883e-06 
6682 2 16.6685 27.3792 0.0610489 1 3.31502e-07 
6688 2 17.3872 28.6237 2.09335 1 2.81234e-07 
6692 2 18.8242 28.6237 0.0611161 1 5.43713e-08 
7067 2 19.5428 27.3792 2.09341 1 6.83501e-08 
7078 2 20.9798 27.3792 0.0611781 1 7.74273e-09 
7080 2 21.6984 28.6237 2.09347 1 1.56228e-08 
7081 2 23.1354 28.6237 0.0612244 1 1.18433e-09 
7462 2 25.291 27.3792 0.0612883 1 4.67496e-10 
7465 2 23.854 27.3792 2.09351 1 4.06229e-09 
950 4 -62.4799 31.1127 1.2031 5 12.3904 
1172 4 -60.3243 32.3572 1.2031 1 7.02607e-16 
1315 4 -60.3243 29.8682 1.2031 1 6.99401e-16 
1318 4 -58.1688 31.1127 1.2031 1 1.1994e-15 
1561 4 -56.0132 32.3572 1.2031 1 4.64676e-09 
1682 4 -56.0132 29.8682 1.2031 1 4.64676e-09 
1730 1 -53.8576 31.1127 1.20307 1 6.59995e-09 
1952 1 -51.7021 32.3572 1.20299 1 7.02187e-10 
2095 1 -51.7021 29.8682 1.20299 1 7.02187e-10 
2098 1 -49.5464 31.1127 1.20293 1 4.02626e-09 
2341 1 -47.3908 32.3572 1.20291 1 2.28651e-08 
2462 1 -47.3908 29.8682 1.20291 1 2.28651e-08 
2510 1 -45.2353 31.1127 1.20299 1 1.99133e-09 
2732 1 -43.0797 32.3572 1.20309 1 7.24434e-10 
2875 1 -43.0797 29.8682 1.20309 1 7.24434e-10 
2878 1 -40.9241 31.1127 1.2032 1 2.19661e-09 
3121 1 -38.7685 32.3572 1.20334 1 3.45442e-09 
3242 1 -38.7685 29.8682 1.20334 1 3.45442e-09 
3290 1 -36.6129 31.1127 1.20351 1 5.56729e-10 
3512 1 -34.4574 32.3572 1.20368 1 3.86247e-09 
3655 1 -34.4574 29.8682 1.20368 1 3.86247e-09 
3658 1 -32.3018 31.1127 1.20389 1 7.201e-09 
3901 1 -30.1462 32.3572 1.20415 1 2.55946e-09 
4022 1 -30.1462 29.8682 1.20415 1 2.55946e-09 
4070 1 -27.9907 31.1127 1.20442 1 1.75983e-08 
4292 1 -25.8351 32.3572 1.20467 1 9.24647e-08 
4435 1 -25.8351 29.8682 1.20467 1 9.24647e-08 