ITEM: TIMESTEP
0
ITEM: NUMBER OF ATOMS
17850
ITEM: BOX BOUNDS ss pp pp
-68.4753 125.423
0 30.4841
0 32.9266
ITEM: ATOMS id type x y z c_cna c_csd 
73 4 -67.9321 1.92298 0.955064 5 24.7808 
229 4 -65.4879 1.92298 1.42544 1 3.99891e-16 
270 4 -63.0437 1.92298 1.89582 1 8.99474e-16 
535 4 -61.4143 1.92298 0.0143048 1 6.98095e-16 
532 4 -60.5996 1.92298 2.3662 1 5.3902e-09 
536 4 -58.9701 1.92298 0.484685 1 7.3734e-08 
914 1 -56.526 1.9228 0.95513 1 3.55851e-09 
916 1 -54.0818 1.92259 1.42555 1 1.57478e-08 
1333 1 -51.6377 1.92248 1.89592 1 1.69685e-08 
1335 1 -50.0082 1.92245 0.0143482 1 6.01286e-09 
1336 1 -49.1935 1.92243 2.36621 1 7.40365e-09 
1718 1 -47.5641 1.92243 0.484608 1 8.08123e-09 
1763 1 -45.1199 1.92246 0.954811 1 6.46739e-09 
2146 1 -42.6757 1.92254 1.42499 1 1.11939e-08 
2191 1 -40.2316 1.92267 1.89513 1 1.93657e-09 
2577 1 -38.6021 1.92276 0.0134386 1 2.32123e-09 
2574 1 -37.7874 1.92281 2.36525 1 1.20758e-09 
2578 1 -36.158 1.92289 0.483558 1 4.21979e-09 
3005 1 -33.7138 1.92303 0.953698 1 8.11244e-09 
3007 1 -31.2697 1.92311 1.42389 1 8.95281e-09 
3433 1 -28.8255 1.92313 1.89409 1 2.26714e-09 
3435 1 -27.1961 1.92314 0.0124303 1 8.76863e-10 
3436 1 -26.3814 1.92315 2.36427 1 7.90271e-10 
3818 1 -24.7519 1.92317 0.482611 1 2.39395e-09 
3863 1 -22.3078 1.92324 0.952764 1 2.87818e-09 
4246 1 -19.8636 1.92333 1.42291 1 1.21444e-08 
4291 1 -17.4195 1.92343 1.89302 1 1.05774e-07 
4674 1 -14.9754 1.92358 2.36309 1 1.25019e-06 
4677 1 -15.7899 1.92349 0.011356 1 8.26179e-07 
4678 1 -13.3455 1.92356 0.481506 1 1.07328e-05 
5105 1 -10.9004 1.92386 0.95172 1 0.00013781 
5107 1 -8.45312 1.92504 1.42219 1 0.00173872 
5521 1 -5.99782 1.9309 1.8924 1 0.0259051 
5524 1 -3.48942 1.91804 2.3325 5 1.16476 
5566 1 -1.80921 0.201384 2.01129 5 7.81744 
5850 1 -1.97469 2.03881 0.285132 5 6.80197 
5890 1 0.0539514 2.09189 1.40723 5 4.5964 
6302 2 1.19921 0.0292461 1.88264 5 0.835283 
6330 2 2.4202 2.09311 0.935045 1 0.0480624 
6327 2 3.73707 0.0631235 1.42659 1 0.0285925 
6332 2 4.85115 2.09277 0.475195 1 0.00281623 
6333 2 6.19767 0.0623323 0.949822 1 0.00155785 
6414 2 6.47845 2.09766 2.35779 1 0.00084503 
6425 2 7.29131 2.09431 0.00671801 1 0.000212817 
6422 2 8.6462 0.0624578 0.478269 1 9.88747e-05 
6423 2 8.92008 2.09559 1.88838 1 7.10852e-05 
6424 2 10.2776 0.0625102 2.35898 1 2.89449e-05 
6426 2 11.0913 0.0623509 0.00720954 1 6.2757e-06 
6593 2 11.3634 2.09483 1.41803 1 5.87817e-06 
6600 2 12.7212 0.0622247 1.88839 1 2.26097e-06 
6601 2 13.8073 2.09443 0.947471 1 4.76194e-07 
6602 2 15.1652 0.0619452 1.41773 1 1.93042e-07 
6855 2 16.2514 2.09412 0.476825 1 4.20269e-08 
6857 2 17.8808 2.09396 2.35818 1 1.55241e-08 
6860 2 17.6093 0.0617071 0.94707 1 2.72929e-08 
6861 2 18.6956 2.0939 0.00619481 1 1.39661e-08 
6862 2 20.0534 0.0615481 0.476443 1 9.20694e-09 
7200 2 20.325 2.0938 1.88755 1 1.03042e-08 
7197 2 21.6829 0.0614788 2.35781 1 3.3753e-09 
7202 2 22.7692 2.09373 1.41695 1 2.66594e-09 
7204 2 22.4976 0.0614586 0.00583708 1 1.04118e-09 
7203 2 24.1271 0.061416 1.88719 1 4.98842e-09 
7598 2 25.2134 2.09365 0.946309 1 4.18818e-09 
7595 2 26.5712 0.061314 1.41655 1 1.09299e-09 
7600 2 27.6575 2.09353 0.475656 1 1.90423e-09 
228 4 -66.8458 3.95525 1.89582 5 6.1952 
230 4 -65.2163 3.95525 0.0143048 1 1.1981e-15 
231 4 -64.4016 3.95525 2.3662 1 9.99998e-16 
488 4 -62.7722 3.95525 0.484685 1 1.00138e-15 
533 4 -60.328 3.95525 0.955064 1 7.20252e-09 
867 1 -57.8838 3.95517 1.42546 1 2.14114e-08 
912 1 -55.4397 3.95497 1.89591 1 7.10707e-09 
1289 1 -53.8103 3.95485 0.0144147 1 1.59763e-08 
1286 1 -52.9955 3.9548 2.36632 1 2.08225e-08 
1290 1 -51.3661 3.95474 0.484774 1 1.591e-08 
1717 1 -48.9219 3.95471 0.955063 1 7.21316e-09 
1719 1 -46.4778 3.95471 1.4253 1 5.09571e-09 
2145 1 -44.0336 3.95476 1.8955 1 1.1864e-08 
2147 1 -42.4042 3.95483 0.01384 1 9.12928e-09 
2148 1 -41.5895 3.95486 2.36567 1 1.54416e-08 
2530 1 -39.96 3.95496 0.48397 1 2.17976e-09 
2575 1 -37.5159 3.95509 0.954088 1 1.29951e-09 
2958 1 -35.0717 3.95523 1.42421 1 6.04926e-09 
3003 1 -32.6276 3.95535 1.89437 1 1.59593e-08 
3389 1 -30.9981 3.95538 0.0127327 1 4.44976e-09 
3386 1 -30.1834 3.95539 2.36458 1 3.98308e-09 
3390 1 -28.5539 3.95539 0.482931 1 2.2502e-09 
3817 1 -26.1098 3.95543 0.953115 1 3.05009e-09 
3819 1 -23.6657 3.95547 1.42328 1 2.57948e-09 
4245 1 -21.2215 3.95555 1.89343 1 3.68228e-09 
4247 1 -19.5921 3.95561 0.0117567 1 1.72989e-08 
4248 1 -18.7773 3.95564 2.36358 1 3.0246e-08 
4630 1 -17.1479 3.9557 0.481899 1 1.23757e-07 
4675 1 -14.7038 3.95578 0.952099 1 1.23565e-06 
5058 1 -12.2598 3.95584 1.42249 1 1.40793e-05 
5103 1 -9.81599 3.95602 1.8938 1 0.000197896 
5474 1 -7.37117 3.95713 2.36634 1 0.00305769 
5477 1 -8.19782 3.95558 0.0092404 1 0.00636747 
5478 1 -5.78465 3.95898 0.467527 1 0.0987892 
5849 1 -3.45259 3.94661 0.957269 5 2.53672 
5851 1 -1.19191 4.20768 1.07583 5 10.2806 
6322 2 1.06774 4.13241 0.441104 1 0.627348 
6324 2 2.63545 4.1374 2.35997 1 0.0781516 
6331 2 3.50088 4.12852 0.00977498 1 0.0158015 
6417 2 5.1072 4.13228 1.89146 1 0.00431701 
6419 2 7.55802 4.12844 1.41881 1 0.00035033 
6596 2 10.0043 4.12733 0.948007 1 2.88796e-05 
6598 2 12.4491 4.12688 0.477299 1 2.53791e-06 
6843 2 14.0787 4.12661 2.35861 1 4.57473e-07 
6858 2 14.8934 4.12655 0.00662022 1 2.56992e-07 
6856 2 16.5229 4.12634 1.88794 1 6.15063e-08 
7189 2 18.9671 4.12616 1.4173 1 1.35578e-08 
7201 2 21.4113 4.12604 0.946702 1 2.93222e-09 
7589 2 23.8555 4.12597 0.476087 1 4.44257e-09 
7591 2 25.485 4.12591 2.35743 1 2.54685e-09 
7599 2 26.2997 4.12587 0.00544045 1 1.3957e-09 
8011 2 27.9291 4.1258 1.88677 1 1.27039e-09 
203 4 -68.2036 5.98753 2.3662 5 30.976 
206 4 -66.5742 5.98753 0.484685 5 6.1952 
487 4 -64.13 5.98753 0.955064 1 8.98563e-16 
489 4 -61.6859 5.98753 1.42544 1 9.9989e-16 
866 4 -59.2417 5.98753 1.89582 1 5.57787e-08 
868 1 -57.6123 5.98744 0.0143356 1 1.91039e-08 
869 1 -56.7976 5.98736 2.36625 1 2.8488e-09 
1242 1 -55.1681 5.98723 0.484777 1 4.90195e-09 
1287 1 -52.724 5.98706 0.955177 1 2.4433e-08 
1670 1 -50.2798 5.987 1.4255 1 6.68603e-09 
1715 1 -47.8356 5.98698 1.89576 1 6.73077e-09 
2101 1 -46.2062 5.98699 0.0141314 1 3.87801e-09 
2098 1 -45.3915 5.987 2.36597 1 8.53211e-09 
2102 1 -43.762 5.98704 0.484332 1 1.06037e-08 
2529 1 -41.3179 5.98715 0.954487 1 7.78387e-09 
2531 1 -38.8737 5.98729 1.42461 1 1.39574e-09 
2957 1 -36.4296 5.98743 1.89474 1 1.78916e-09 
2959 1 -34.8001 5.98751 0.0130442 1 3.4192e-09 
2960 1 -33.9854 5.98757 2.36486 1 1.16811e-08 
3342 1 -32.356 5.98762 0.483203 1 9.7203e-09 
3387 1 -29.9118 5.98767 0.953409 1 3.72722e-09 
3770 1 -27.4677 5.98768 1.42359 1 1.65619e-09 
3815 1 -25.0235 5.98771 1.89377 1 2.45089e-09 
4198 1 -22.5794 5.98777 2.36393 1 3.24262e-09 
4201 1 -23.3941 5.98775 0.0121089 1 3.8309e-09 
4202 1 -20.9499 5.98784 0.482263 1 7.84877e-09 
4629 1 -18.5057 5.98792 0.95239 1 4.67189e-08 
4631 1 -16.0616 5.98803 1.42249 1 5.04895e-07 
5057 1 -13.6175 5.98814 1.89254 1 6.49648e-06 
5059 1 -11.9869 5.9884 0.0109752 1 4.92063e-05 
5060 1 -11.1739 5.98836 2.36254 1 8.37456e-05 
5430 1 -9.54089 5.98938 0.481436 1 0.00055496 
5475 1 -7.09066 5.99399 0.951472 1 0.00699812 
5802 1 -4.64081 6.00474 1.44633 5 0.31192 
5847 1 -1.80921 6.2982 2.01129 5 7.81744 
6323 2 1.19921 6.12606 1.88264 5 0.835283 
6402 2 3.73707 6.15994 1.42659 1 0.0285925 
6418 2 6.19767 6.15915 0.949822 1 0.00155785 
6583 2 8.6462 6.15928 0.478269 1 9.88747e-05 
6585 2 10.2776 6.15933 2.35898 1 2.89449e-05 
6597 2 11.0913 6.15917 0.00720954 1 6.2757e-06 
6846 2 12.7212 6.15904 1.88839 1 2.26097e-06 
6848 2 15.1652 6.15876 1.41773 1 1.93042e-07 
7192 2 17.6093 6.15853 0.94707 1 2.72929e-08 
7194 2 20.0534 6.15837 0.476443 1 9.20694e-09 
7573 2 21.6829 6.1583 2.35781 1 3.3753e-09 
7592 2 22.4976 6.15828 0.00583708 1 1.04118e-09 
7590 2 24.1271 6.15823 1.88719 1 4.98841e-09 
7996 2 26.5712 6.15813 1.41655 1 1.09299e-09 
204 4 -67.9321 8.0198 0.955064 5 24.7808 
443 4 -66.8458 10.0521 1.89582 5 6.1952 
444 4 -65.4879 8.0198 1.42544 1 3.99891e-16 
445 4 -65.2163 10.0521 0.0143048 1 8.98096e-16 
446 4 -64.4016 10.0521 2.3662 1 7e-16 
485 4 -63.0437 8.0198 1.89582 1 8.99474e-16 
779 4 -62.7722 10.0521 0.484685 1 7.01382e-16 
822 4 -61.4143 8.0198 0.0143048 1 6.98095e-16 
819 4 -60.5996 8.0198 2.3662 1 5.39006e-09 
820 4 -60.328 10.0521 0.955064 1 7.20209e-09 
823 4 -58.9701 8.0198 0.484685 1 7.37322e-08 
1197 1 -57.8838 10.052 1.42546 1 2.14123e-08 
1241 1 -56.526 8.01962 0.95513 1 3.55866e-09 
1239 1 -55.4397 10.0518 1.89591 1 7.10692e-09 
1243 1 -54.0818 8.01941 1.42555 1 1.57478e-08 
1626 1 -53.8103 10.0517 0.0144147 1 1.59762e-08 
1623 1 -52.9955 10.0516 2.36632 1 2.08225e-08 
1627 1 -51.3661 10.0516 0.484774 1 1.591e-08 
1669 1 -51.6377 8.0193 1.89592 1 1.69685e-08 
1671 1 -50.0082 8.01927 0.0143482 1 6.01286e-09 
1672 1 -49.1935 8.01925 2.36621 1 7.40365e-09 
2054 1 -48.9219 10.0515 0.955063 1 7.21316e-09 
2055 1 -47.5641 8.01925 0.484608 1 8.08122e-09 
2056 1 -46.4778 10.0515 1.4253 1 5.09567e-09 
2099 1 -45.1199 8.01928 0.954811 1 6.46739e-09 
2481 1 -44.0336 10.0516 1.8955 1 1.1864e-08 
2482 1 -42.6757 8.01936 1.42499 1 1.11938e-08 
2483 1 -42.4042 10.0516 0.01384 1 9.1293e-09 
2484 1 -41.5895 10.0517 2.36567 1 1.54416e-08 
2527 1 -40.2316 8.01949 1.89513 1 1.93657e-09 
2870 1 -39.96 10.0518 0.48397 1 2.17976e-09 
2913 1 -38.6021 8.01958 0.0134386 1 2.32123e-09 
2910 1 -37.7874 8.01963 2.36525 1 1.20758e-09 
2911 1 -37.5159 10.0519 0.954088 1 1.29951e-09 
2914 1 -36.158 8.01971 0.483558 1 4.21977e-09 
3297 1 -35.0717 10.0521 1.42421 1 6.04926e-09 
3341 1 -33.7138 8.01985 0.953698 1 8.11244e-09 
3339 1 -32.6276 10.0522 1.89437 1 1.59593e-08 
3343 1 -31.2697 8.01993 1.42389 1 8.9528e-09 
3726 1 -30.9981 10.0522 0.0127327 1 4.44978e-09 
3723 1 -30.1834 10.0522 2.36458 1 3.98311e-09 
3727 1 -28.5539 10.0522 0.482931 1 2.25022e-09 
3769 1 -28.8255 8.01995 1.89409 1 2.26714e-09 
3771 1 -27.1961 8.01996 0.0124303 1 8.76862e-10 
3772 1 -26.3814 8.01997 2.36427 1 7.9027e-10 
4154 1 -26.1098 10.0522 0.953115 1 3.05008e-09 
4155 1 -24.7519 8.01999 0.482611 1 2.39394e-09 
4156 1 -23.6657 10.0523 1.42328 1 2.57949e-09 
4199 1 -22.3078 8.02006 0.952764 1 2.87817e-09 
4581 1 -21.2215 10.0524 1.89343 1 3.68228e-09 
4582 1 -19.8636 8.02015 1.42291 1 1.21444e-08 
4583 1 -19.5921 10.0524 0.0117567 1 1.72989e-08 
4584 1 -18.7773 10.0525 2.36358 1 3.0246e-08 
4627 1 -17.4195 8.02025 1.89302 1 1.05774e-07 
4970 1 -17.1479 10.0525 0.481899 1 1.23757e-07 
5010 1 -14.9754 8.0204 2.36309 1 1.25019e-06 
5013 1 -15.7899 8.02031 0.011356 1 8.26179e-07 
5011 1 -14.7038 10.0526 0.952099 1 1.23565e-06 
5014 1 -13.3455 8.02038 0.481506 1 1.07328e-05 
5385 1 -12.2598 10.0527 1.42249 1 1.40793e-05 
5427 1 -9.81599 10.0528 1.8938 1 0.000197896 
5429 1 -10.9004 8.02068 0.95172 1 0.00013781 
5431 1 -8.45312 8.02185 1.42219 1 0.00173872 
5755 1 -7.37117 10.0539 2.36634 1 0.00305769 
5758 1 -8.19782 10.0524 0.0092404 1 0.00636747 
5759 1 -5.78465 10.0558 0.467527 1 0.0987892 
5801 1 -5.99782 8.02772 1.8924 1 0.0259051 
5804 1 -3.48942 8.01486 2.3325 5 1.16476 
6055 1 -3.45259 10.0434 0.957269 5 2.53672 
6056 1 -1.97469 8.13563 0.285132 5 6.80197 
6095 1 0.0539514 8.18871 1.40723 5 4.5964 
6405 2 2.4202 8.18993 0.935045 1 0.0480624 
6407 2 4.85115 8.18959 0.475195 1 0.00281623 
6563 2 6.47845 8.19448 2.35779 1 0.00084503 
6586 2 7.29131 8.19113 0.00671801 1 0.000212817 
6584 2 8.92008 8.19241 1.88838 1 7.10852e-05 
6827 2 11.3634 8.19164 1.41803 1 5.87817e-06 
6847 2 13.8073 8.19125 0.947471 1 4.76194e-07 
7175 2 16.2514 8.19094 0.476825 1 4.20269e-08 
7177 2 17.8808 8.19077 2.35818 1 1.55241e-08 
7193 2 18.6956 8.19072 0.00619481 1 1.39661e-08 
7576 2 20.325 8.19062 1.88755 1 1.03042e-08 
7578 2 22.7692 8.19055 1.41695 1 2.66594e-09 
7999 2 25.2134 8.19046 0.946309 1 4.18818e-09 
8001 2 27.6575 8.19035 0.475656 1 1.90423e-09 
418 4 -68.2036 12.0843 2.3662 5 30.976 
421 4 -66.5742 12.0843 0.484685 5 6.1952 
778 4 -64.13 12.0843 0.955064 1 8.98562e-16 
780 4 -61.6859 12.0843 1.42544 1 9.9989e-16 
1196 4 -59.2417 12.0843 1.89582 1 5.57894e-08 
1198 1 -57.6123 12.0843 0.0143356 1 1.91005e-08 
1199 1 -56.7976 12.0842 2.36625 1 2.84827e-09 
1587 1 -55.1681 12.084 0.484777 1 4.90189e-09 
1624 1 -52.724 12.0839 0.955177 1 2.4433e-08 
2014 1 -50.2798 12.0838 1.4255 1 6.68603e-09 
2052 1 -47.8356 12.0838 1.89576 1 6.73077e-09 
2442 1 -46.2062 12.0838 0.0141314 1 3.878e-09 
2439 1 -45.3915 12.0838 2.36597 1 8.53213e-09 
2443 1 -43.762 12.0839 0.484332 1 1.06037e-08 
2869 1 -41.3179 12.084 0.954487 1 7.78387e-09 
2871 1 -38.8737 12.0841 1.42461 1 1.39574e-09 
3296 1 -36.4296 12.0842 1.89474 1 1.78919e-09 
3298 1 -34.8001 12.0843 0.0130442 1 3.41921e-09 
3299 1 -33.9854 12.0844 2.36486 1 1.16812e-08 
3687 1 -32.356 12.0844 0.483203 1 9.72031e-09 
3724 1 -29.9118 12.0845 0.953409 1 3.72722e-09 
4114 1 -27.4677 12.0845 1.42359 1 1.65619e-09 
4152 1 -25.0235 12.0845 1.89377 1 2.45089e-09 
4539 1 -22.5794 12.0846 2.36393 1 3.24261e-09 
4542 1 -23.3941 12.0846 0.0121089 1 3.83091e-09 
4543 1 -20.9499 12.0847 0.482263 1 7.84876e-09 
4969 1 -18.5057 12.0847 0.95239 1 4.67189e-08 
4971 1 -16.0616 12.0848 1.42249 1 5.04895e-07 
5384 1 -13.6175 12.085 1.89254 1 6.49648e-06 
5386 1 -11.9869 12.0852 0.0109752 1 4.92063e-05 
5387 1 -11.1739 12.0852 2.36254 1 8.37456e-05 
5719 1 -9.54089 12.0862 0.481436 1 0.00055496 
5756 1 -7.09066 12.0908 0.951472 1 0.00699812 
6015 1 -4.64081 12.1016 1.44633 5 0.31192 
6053 1 -1.80921 12.395 2.01129 5 7.81744 
6057 1 -1.19191 10.3045 1.07583 5 10.2806 
6385 2 1.06774 10.2292 0.441104 1 0.627348 
6386 2 1.19921 12.2229 1.88264 5 0.835283 
6387 2 2.63545 10.2342 2.35997 1 0.0781516 
6406 2 3.50088 10.2253 0.00977498 1 0.0158015 
6539 2 3.73707 12.2568 1.42659 1 0.0285925 
6566 2 5.1072 10.2291 1.89146 1 0.00431701 
6567 2 6.19767 12.256 0.949822 1 0.00155785 
6568 2 7.55802 10.2253 1.41881 1 0.00035033 
6805 2 8.6462 12.2561 0.478269 1 9.88747e-05 
6807 2 10.2776 12.2561 2.35898 1 2.89449e-05 
6830 2 10.0043 10.2241 0.948007 1 2.88796e-05 
6831 2 11.0913 12.256 0.00720954 1 6.2757e-06 
6832 2 12.4491 10.2237 0.477299 1 2.53791e-06 
7154 2 12.7212 12.2559 1.88839 1 2.26097e-06 
7151 2 14.0787 10.2234 2.35861 1 4.57473e-07 
7156 2 15.1652 12.2556 1.41773 1 1.93042e-07 
7178 2 14.8934 10.2234 0.00662022 1 2.56992e-07 
7176 2 16.5229 10.2232 1.88794 1 6.15062e-08 
7556 2 17.6093 12.2553 0.94707 1 2.72929e-08 
7553 2 18.9671 10.223 1.4173 1 1.35578e-08 
7558 2 20.0534 12.2552 0.476443 1 9.20693e-09 
7577 2 21.4113 10.2229 0.946702 1 2.93221e-09 
7950 2 21.6829 12.2551 2.35781 1 3.37531e-09 
7981 2 22.4976 12.2551 0.00583708 1 1.04118e-09 
7978 2 23.8555 10.2228 0.476087 1 4.44255e-09 
7979 2 24.1271 12.2551 1.88719 1 4.9884e-09 
7980 2 25.485 10.2227 2.35743 1 2.54686e-09 
8000 2 26.2997 10.2227 0.00544045 1 1.3957e-09 
8377 2 26.5712 12.255 1.41655 1 1.093e-09 
8404 2 27.9291 10.2226 1.88677 1 1.27039e-09 
419 4 -67.9321 14.1166 0.955064 5 24.7808 
742 4 -65.4879 14.1166 1.42544 1 6.9989e-16 
776 4 -63.0437 14.1166 1.89582 1 1.19947e-15 
1161 4 -61.4143 14.1166 0.0143048 1 9.98094e-16 
1158 4 -60.5996 14.1166 2.3662 1 5.38968e-09 
1162 4 -58.9701 14.1166 0.484685 1 7.3729e-08 
1586 1 -56.526 14.1164 0.95513 1 3.55853e-09 
1588 1 -54.0818 14.1162 1.42555 1 1.57477e-08 
2013 1 -51.6377 14.1161 1.89592 1 1.69684e-08 
2015 1 -50.0082 14.1161 0.0143482 1 6.01285e-09 
2016 1 -49.1935 14.1161 2.36621 1 7.40366e-09 
2407 1 -47.5641 14.1161 0.484608 1 8.08122e-09 
2440 1 -45.1199 14.1161 0.954811 1 6.46741e-09 
2833 1 -42.6757 14.1162 1.42499 1 1.11938e-08 
2867 1 -40.2316 14.1163 1.89513 1 1.93658e-09 
3261 1 -38.6021 14.1164 0.0134386 1 2.32123e-09 
3258 1 -37.7874 14.1165 2.36525 1 1.20759e-09 
3262 1 -36.158 14.1165 0.483558 1 4.21976e-09 
3686 1 -33.7138 14.1167 0.953698 1 8.11244e-09 
3688 1 -31.2697 14.1167 1.42389 1 8.95283e-09 
4113 1 -28.8255 14.1168 1.89409 1 2.26713e-09 
4115 1 -27.1961 14.1168 0.0124303 1 8.76859e-10 
4116 1 -26.3814 14.1168 2.36427 1 7.90272e-10 
4507 1 -24.7519 14.1168 0.482611 1 2.39393e-09 
4540 1 -22.3078 14.1169 0.952764 1 2.87817e-09 
4933 1 -19.8636 14.117 1.42291 1 1.21444e-08 
4967 1 -17.4195 14.1171 1.89302 1 1.05774e-07 
5346 1 -14.9754 14.1172 2.36309 1 1.25019e-06 
5349 1 -15.7899 14.1171 0.011356 1 8.26179e-07 
5350 1 -13.3455 14.1172 0.481506 1 1.07328e-05 
5718 1 -10.9004 14.1175 0.95172 1 0.00013781 
5720 1 -8.45312 14.1187 1.42219 1 0.00173872 
6014 1 -5.99782 14.1245 1.8924 1 0.0259051 
6017 1 -3.48942 14.1117 2.3325 5 1.16476 
6193 1 -1.97469 14.2324 0.285132 5 6.80197 
6221 1 0.0539514 14.2855 1.40723 5 4.5964 
6542 2 2.4202 14.2867 0.935045 1 0.0480624 
6544 2 4.85115 14.2864 0.475195 1 0.00281623 
6773 2 6.47845 14.2913 2.35779 1 0.00084503 
6808 2 7.29131 14.2879 0.00671801 1 0.000212817 
6806 2 8.92008 14.2892 1.88838 1 7.10852e-05 
7123 2 11.3634 14.2885 1.41803 1 5.87817e-06 
7155 2 13.8073 14.2881 0.947471 1 4.76194e-07 
7527 2 16.2514 14.2878 0.476825 1 4.20269e-08 
7529 2 17.8808 14.2876 2.35818 1 1.55241e-08 
7557 2 18.6956 14.2875 0.00619481 1 1.39661e-08 
7953 2 20.325 14.2874 1.88755 1 1.03042e-08 
7955 2 22.7692 14.2874 1.41695 1 2.66594e-09 
8380 2 25.2134 14.2873 0.946309 1 4.18818e-09 
8382 2 27.6575 14.2872 0.475656 1 1.90423e-09 
741 4 -66.8458 16.1489 1.89582 5 6.1952 
743 4 -65.2163 16.1489 0.0143048 1 8.98095e-16 
744 4 -64.4016 16.1489 2.3662 1 6.99999e-16 
1130 4 -62.7722 16.1489 0.484685 1 7.01381e-16 
1159 4 -60.328 16.1489 0.955064 1 7.20185e-09 
1554 1 -57.8838 16.1488 1.42546 1 2.14129e-08 
1584 1 -55.4397 16.1486 1.89591 1 7.10701e-09 
1982 1 -53.8103 16.1485 0.0144147 1 1.59761e-08 
1979 1 -52.9955 16.1484 2.36632 1 2.08225e-08 
1983 1 -51.3661 16.1484 0.484774 1 1.591e-08 
2406 1 -48.9219 16.1483 0.955063 1 7.21316e-09 
2408 1 -46.4778 16.1484 1.4253 1 5.09568e-09 
2832 1 -44.0336 16.1484 1.8955 1 1.1864e-08 
2834 1 -42.4042 16.1485 0.01384 1 9.1293e-09 
2835 1 -41.5895 16.1485 2.36567 1 1.54416e-08 
3230 1 -39.96 16.1486 0.48397 1 2.17976e-09 
3259 1 -37.5159 16.1487 0.954088 1 1.29952e-09 
3654 1 -35.0717 16.1489 1.42421 1 6.04928e-09 
3684 1 -32.6276 16.149 1.89437 1 1.59593e-08 
4082 1 -30.9981 16.149 0.0127327 1 4.44977e-09 
4079 1 -30.1834 16.149 2.36458 1 3.9831e-09 
4083 1 -28.5539 16.149 0.482931 1 2.25022e-09 
4506 1 -26.1098 16.1491 0.953115 1 3.05008e-09 
4508 1 -23.6657 16.1491 1.42328 1 2.57948e-09 
4932 1 -21.2215 16.1492 1.89343 1 3.68228e-09 
4934 1 -19.5921 16.1492 0.0117567 1 1.72989e-08 
4935 1 -18.7773 16.1493 2.36358 1 3.0246e-08 
5318 1 -17.1479 16.1493 0.481899 1 1.23757e-07 
5347 1 -14.7038 16.1494 0.952099 1 1.23565e-06 
5686 1 -12.2598 16.1495 1.42249 1 1.40793e-05 
5716 1 -9.81599 16.1497 1.8938 1 0.000197896 
5980 1 -7.37117 16.1508 2.36634 1 0.00305769 
5983 1 -8.19782 16.1492 0.0092404 1 0.00636747 
5984 1 -5.78465 16.1526 0.467527 1 0.0987892 
6192 1 -3.45259 16.1402 0.957269 5 2.53672 
6194 1 -1.19191 16.4013 1.07583 5 10.2806 
6510 2 1.06774 16.3261 0.441104 1 0.627348 
6512 2 2.63545 16.331 2.35997 1 0.0781516 
6543 2 3.50088 16.3222 0.00977498 1 0.0158015 
6776 2 5.1072 16.3259 1.89146 1 0.00431701 
6778 2 7.55802 16.3221 1.41881 1 0.00035033 
7126 2 10.0043 16.321 0.948007 1 2.88796e-05 
7128 2 12.4491 16.3205 0.477299 1 2.53791e-06 
7491 2 14.0787 16.3202 2.35861 1 4.57473e-07 
7530 2 14.8934 16.3202 0.00662022 1 2.56992e-07 
7528 2 16.5229 16.32 1.88794 1 6.15062e-08 
7918 2 18.9671 16.3198 1.4173 1 1.35578e-08 
7954 2 21.4113 16.3197 0.946702 1 2.93222e-09 
8347 2 23.8555 16.3196 0.476087 1 4.44255e-09 
8349 2 25.485 16.3195 2.35743 1 2.54686e-09 
8381 2 26.2997 16.3195 0.00544045 1 1.3957e-09 
8774 2 27.9291 16.3194 1.88677 1 1.27039e-09 
717 4 -68.2036 18.1812 2.3662 5 30.976 
718 4 -67.9321 20.2134 0.955064 5 24.7808 
720 4 -66.5742 18.1812 0.484685 5 6.1952 
1105 4 -65.4879 20.2134 1.42544 1 6.9989e-16 
1129 4 -64.13 18.1812 0.955064 1 5.98563e-16 
1127 4 -63.0437 20.2134 1.89582 1 1.19947e-15 
1131 4 -61.6859 18.1812 1.42544 1 6.9989e-16 
1530 4 -61.4143 20.2134 0.0143048 1 9.98094e-16 
1527 4 -60.5996 20.2134 2.3662 1 5.3909e-09 
1531 4 -58.9701 20.2134 0.484685 1 7.37408e-08 
1553 4 -59.2417 18.1812 1.89582 1 5.5786e-08 
1555 1 -57.6123 18.1811 0.0143356 1 1.91018e-08 
1556 1 -56.7976 18.181 2.36625 1 2.84843e-09 
1954 1 -56.526 20.2133 0.95513 1 3.55818e-09 
1955 1 -55.1681 18.1809 0.484777 1 4.90193e-09 
1956 1 -54.0818 20.2131 1.42555 1 1.57477e-08 
1980 1 -52.724 18.1807 0.955177 1 2.4433e-08 
2377 1 -51.6377 20.2129 1.89592 1 1.69684e-08 
2378 1 -50.2798 18.1806 1.4255 1 6.68603e-09 
2379 1 -50.0082 20.2129 0.0143482 1 6.01285e-09 
2380 1 -49.1935 20.2129 2.36621 1 7.40364e-09 
2404 1 -47.8356 18.1806 1.89576 1 6.73077e-09 
2782 1 -47.5641 20.2129 0.484608 1 8.08122e-09 
2805 1 -46.2062 18.1806 0.0141314 1 3.878e-09 
2802 1 -45.3915 18.1806 2.36597 1 8.53212e-09 
2803 1 -45.1199 20.2129 0.954811 1 6.4674e-09 
2806 1 -43.762 18.1807 0.484332 1 1.06037e-08 
3205 1 -42.6757 20.213 1.42499 1 1.11938e-08 
3229 1 -41.3179 18.1808 0.954487 1 7.78386e-09 
3227 1 -40.2316 20.2131 1.89513 1 1.93658e-09 
3231 1 -38.8737 18.1809 1.42461 1 1.39573e-09 
3630 1 -38.6021 20.2132 0.0134386 1 2.32122e-09 
3627 1 -37.7874 20.2133 2.36525 1 1.20759e-09 
3631 1 -36.158 20.2133 0.483558 1 4.21975e-09 
3653 1 -36.4296 18.1811 1.89474 1 1.78917e-09 
3655 1 -34.8001 18.1812 0.0130442 1 3.41921e-09 
3656 1 -33.9854 18.1812 2.36486 1 1.16812e-08 
4054 1 -33.7138 20.2135 0.953698 1 8.11243e-09 
4055 1 -32.356 18.1813 0.483203 1 9.72031e-09 
4056 1 -31.2697 20.2136 1.42389 1 8.95283e-09 
4080 1 -29.9118 18.1813 0.953409 1 3.72722e-09 
4477 1 -28.8255 20.2136 1.89409 1 2.26713e-09 
4478 1 -27.4677 18.1813 1.42359 1 1.65619e-09 
4479 1 -27.1961 20.2136 0.0124303 1 8.76866e-10 
4480 1 -26.3814 20.2136 2.36427 1 7.9027e-10 
4504 1 -25.0235 18.1814 1.89377 1 2.45089e-09 
4882 1 -24.7519 20.2136 0.482611 1 2.39394e-09 
4902 1 -22.5794 18.1814 2.36393 1 3.24261e-09 
4905 1 -23.3941 18.1814 0.0121089 1 3.83091e-09 
4903 1 -22.3078 20.2137 0.952764 1 2.87817e-09 
4906 1 -20.9499 18.1815 0.482263 1 7.84876e-09 
5293 1 -19.8636 20.2138 1.42291 1 1.21444e-08 
5317 1 -18.5057 18.1816 0.95239 1 4.67189e-08 
5315 1 -17.4195 20.2139 1.89302 1 1.05774e-07 
5319 1 -16.0616 18.1817 1.42249 1 5.04895e-07 
5659 1 -14.9754 20.214 2.36309 1 1.25019e-06 
5662 1 -15.7899 20.2139 0.011356 1 8.26179e-07 
5663 1 -13.3455 20.214 0.481506 1 1.07328e-05 
5685 1 -13.6175 18.1818 1.89254 1 6.49648e-06 
5687 1 -11.9869 18.182 0.0109752 1 4.92063e-05 
5688 1 -11.1739 18.182 2.36254 1 8.37456e-05 
5955 1 -10.9004 20.2143 0.95172 1 0.00013781 
5956 1 -9.54089 18.183 0.481436 1 0.00055496 
5957 1 -8.45312 20.2155 1.42219 1 0.00173872 
5981 1 -7.09066 18.1876 0.951472 1 0.00699812 
6163 1 -5.99782 20.2214 1.8924 1 0.0259051 
6164 1 -4.64081 18.1984 1.44633 5 0.31192 
6166 1 -3.48942 20.2085 2.3325 5 1.16476 
6190 1 -1.80921 18.4918 2.01129 5 7.81744 
6511 2 1.19921 18.3197 1.88264 5 0.835283 
6737 2 3.73707 18.3536 1.42659 1 0.0285925 
6777 2 6.19767 18.3528 0.949822 1 0.00155785 
7089 2 8.6462 18.3529 0.478269 1 9.88747e-05 
7091 2 10.2776 18.353 2.35898 1 2.89449e-05 
7127 2 11.0913 18.3528 0.00720954 1 6.2757e-06 
7494 2 12.7212 18.3527 1.88839 1 2.26097e-06 
7496 2 15.1652 18.3524 1.41773 1 1.93042e-07 
7921 2 17.6093 18.3522 0.94707 1 2.72929e-08 
7923 2 20.0534 18.352 0.476443 1 9.20693e-09 
8307 2 21.6829 18.3519 2.35781 1 3.37531e-09 
8350 2 22.4976 18.3519 0.00583708 1 1.04118e-09 
8348 2 24.1271 18.3519 1.88719 1 4.9884e-09 
8735 2 26.5712 18.3518 1.41655 1 1.093e-09 
1104 4 -66.8458 22.2457 1.89582 5 6.1952 
1106 4 -65.2163 22.2457 0.0143048 1 1.1981e-15 
1107 4 -64.4016 22.2457 2.3662 1 9.99999e-16 
1511 4 -62.7722 22.2457 0.484685 1 1.00138e-15 
1528 4 -60.328 22.2457 0.955064 1 7.20132e-09 
1934 1 -57.8838 22.2456 1.42546 1 2.14135e-08 
1952 1 -55.4397 22.2454 1.89591 1 7.10709e-09 
2358 1 -53.8103 22.2453 0.0144147 1 1.59762e-08 
2355 1 -52.9955 22.2453 2.36632 1 2.08225e-08 
2359 1 -51.3661 22.2452 0.484774 1 1.591e-08 
2781 1 -48.9219 22.2452 0.955063 1 7.21316e-09 
2783 1 -46.4778 22.2452 1.4253 1 5.09567e-09 
3204 1 -44.0336 22.2452 1.8955 1 1.1864e-08 
3206 1 -42.4042 22.2453 0.01384 1 9.1293e-09 
3207 1 -41.5895 22.2453 2.36567 1 1.54416e-08 
3611 1 -39.96 22.2454 0.48397 1 2.17974e-09 
3628 1 -37.5159 22.2455 0.954088 1 1.29952e-09 
4034 1 -35.0717 22.2457 1.42421 1 6.04928e-09 
4052 1 -32.6276 22.2458 1.89437 1 1.59593e-08 
4458 1 -30.9981 22.2458 0.0127327 1 4.44977e-09 
4455 1 -30.1834 22.2458 2.36458 1 3.98311e-09 
4459 1 -28.5539 22.2459 0.482931 1 2.25021e-09 
4881 1 -26.1098 22.2459 0.953115 1 3.05008e-09 
4883 1 -23.6657 22.2459 1.42328 1 2.57948e-09 
5292 1 -21.2215 22.246 1.89343 1 3.68228e-09 
5294 1 -19.5921 22.2461 0.0117567 1 1.72989e-08 
5295 1 -18.7773 22.2461 2.36358 1 3.0246e-08 
5643 1 -17.1479 22.2462 0.481899 1 1.23757e-07 
5660 1 -14.7038 22.2462 0.952099 1 1.23565e-06 
5935 1 -12.2598 22.2463 1.42249 1 1.40793e-05 
5953 1 -9.81599 22.2465 1.8938 1 0.000197896 
6141 1 -7.37117 22.2476 2.36634 1 0.00305769 
6144 1 -8.19782 22.246 0.0092404 1 0.00636747 
6145 1 -5.78465 22.2494 0.467527 1 0.0987892 
6268 1 -3.45259 22.2371 0.957269 5 2.53672 
6269 1 -1.97469 20.3293 0.285132 5 6.80197 
6270 1 -1.19191 22.4981 1.07583 5 10.2806 
6285 1 0.0539514 20.3823 1.40723 5 4.5964 
6696 2 1.06774 22.4229 0.441104 1 0.627348 
6698 2 2.63545 22.4279 2.35997 1 0.0781516 
6740 2 2.4202 20.3836 0.935045 1 0.0480624 
6741 2 3.50088 22.419 0.00977498 1 0.0158015 
6742 2 4.85115 20.3832 0.475195 1 0.00281623 
7048 2 5.1072 22.4227 1.89146 1 0.00431701 
7045 2 6.47845 20.3881 2.35779 1 0.00084503 
7050 2 7.55802 22.4189 1.41881 1 0.00035033 
7092 2 7.29131 20.3848 0.00671801 1 0.000212817 
7090 2 8.92008 20.386 1.88838 1 7.10852e-05 
7454 2 10.0043 22.4178 0.948007 1 2.88796e-05 
7451 2 11.3634 20.3853 1.41803 1 5.87817e-06 
7456 2 12.4491 22.4173 0.477299 1 2.53791e-06 
7495 2 13.8073 20.3849 0.947471 1 4.76194e-07 
7833 2 14.0787 22.4171 2.35861 1 4.57473e-07 
7883 2 14.8934 22.417 0.00662022 1 2.56992e-07 
7880 2 16.2514 20.3846 0.476825 1 4.20269e-08 
7881 2 16.5229 22.4168 1.88794 1 6.15062e-08 
7882 2 17.8808 20.3844 2.35818 1 1.55241e-08 
7922 2 18.6956 20.3844 0.00619481 1 1.39661e-08 
8263 2 18.9671 22.4166 1.4173 1 1.35578e-08 
8310 2 20.325 20.3843 1.88755 1 1.03042e-08 
8311 2 21.4113 22.4165 0.946702 1 2.93222e-09 
8312 2 22.7692 20.3842 1.41695 1 2.66594e-09 
8693 2 23.8555 22.4164 0.476087 1 4.44255e-09 
8695 2 25.485 22.4164 2.35743 1 2.54685e-09 
8738 2 25.2134 20.3841 0.946309 1 4.18818e-09 
8739 2 26.2997 22.4163 0.00544045 1 1.3957e-09 
8740 2 27.6575 20.384 0.475656 1 1.90422e-09 
9124 2 27.9291 22.4163 1.88677 1 1.27039e-09 
1087 4 -68.2036 24.278 2.3662 5 30.976 
1090 4 -66.5742 24.278 0.484685 5 6.1952 
1510 4 -64.13 24.278 0.955064 1 5.98563e-16 
1512 4 -61.6859 24.278 1.42544 1 6.9989e-16 
1933 4 -59.2417 24.278 1.89582 1 5.57836e-08 
1935 1 -57.6123 24.2779 0.0143356 1 1.91021e-08 
1936 1 -56.7976 24.2778 2.36625 1 2.84849e-09 
2343 1 -55.1681 24.2777 0.484777 1 4.90195e-09 
2356 1 -52.724 24.2775 0.955177 1 2.4433e-08 
2765 1 -50.2798 24.2775 1.4255 1 6.68603e-09 
2779 1 -47.8356 24.2774 1.89576 1 6.73077e-09 
3189 1 -46.2062 24.2774 0.0141314 1 3.87804e-09 
3186 1 -45.3915 24.2775 2.36597 1 8.53209e-09 
3190 1 -43.762 24.2775 0.484332 1 1.06037e-08 
3610 1 -41.3179 24.2776 0.954487 1 7.78385e-09 
3612 1 -38.8737 24.2778 1.42461 1 1.39573e-09 
4033 1 -36.4296 24.2779 1.89474 1 1.78917e-09 
4035 1 -34.8001 24.278 0.0130442 1 3.4192e-09 
4036 1 -33.9854 24.278 2.36486 1 1.16811e-08 
4443 1 -32.356 24.2781 0.483203 1 9.72031e-09 
4456 1 -29.9118 24.2781 0.953409 1 3.72723e-09 
4865 1 -27.4677 24.2781 1.42359 1 1.6562e-09 
4879 1 -25.0235 24.2782 1.89377 1 2.45089e-09 
5274 1 -22.5794 24.2782 2.36393 1 3.24261e-09 
5277 1 -23.3941 24.2782 0.0121089 1 3.8309e-09 
5278 1 -20.9499 24.2783 0.482263 1 7.84876e-09 
5642 1 -18.5057 24.2784 0.95239 1 4.67189e-08 
5644 1 -16.0616 24.2785 1.42249 1 5.04895e-07 
5934 1 -13.6175 24.2786 1.89254 1 6.49648e-06 
5936 1 -11.9869 24.2789 0.0109752 1 4.92063e-05 
5937 1 -11.1739 24.2788 2.36254 1 8.37456e-05 
6129 1 -9.54089 24.2798 0.481436 1 0.00055496 
6142 1 -7.09066 24.2844 0.951472 1 0.00699812 
6252 1 -4.64081 24.2952 1.44633 5 0.31192 
6266 1 -1.80921 24.5887 2.01129 5 7.81744 
6697 2 1.19921 24.4165 1.88264 5 0.835283 
6999 2 3.73707 24.4504 1.42659 1 0.0285925 
7049 2 6.19767 24.4496 0.949822 1 0.00155785 
7406 2 8.6462 24.4497 0.478269 1 9.88747e-05 
7408 2 10.2776 24.4498 2.35898 1 2.89449e-05 
7455 2 11.0913 24.4496 0.00720954 1 6.2757e-06 
7836 2 12.7212 24.4495 1.88839 1 2.26097e-06 
7838 2 15.1652 24.4492 1.41773 1 1.93042e-07 
8266 2 17.6093 24.449 0.94707 1 2.72929e-08 
8268 2 20.0534 24.4488 0.476443 1 9.20693e-09 
8645 2 21.6829 24.4488 2.35781 1 3.37531e-09 
8696 2 22.4976 24.4487 0.00583708 1 1.04118e-09 
8694 2 24.1271 24.4487 1.88719 1 4.9884e-09 
9075 2 26.5712 24.4486 1.41655 1 1.093e-09 
1088 4 -67.9321 26.3103 0.955064 5 24.7808 
1498 4 -65.4879 26.3103 1.42544 1 3.9989e-16 
1508 4 -63.0437 26.3103 1.89582 1 8.99472e-16 
1922 4 -61.4143 26.3103 0.0143048 1 6.98094e-16 
1919 4 -60.5996 26.3103 2.3662 1 5.39048e-09 
1923 4 -58.9701 26.3103 0.484685 1 7.37365e-08 
2342 1 -56.526 26.3101 0.95513 1 3.55824e-09 
2344 1 -54.0818 26.3099 1.42555 1 1.57478e-08 
2764 1 -51.6377 26.3098 1.89592 1 1.69684e-08 
2766 1 -50.0082 26.3097 0.0143482 1 6.01285e-09 
2767 1 -49.1935 26.3097 2.36621 1 7.40364e-09 
3178 1 -47.5641 26.3097 0.484608 1 8.08121e-09 
3187 1 -45.1199 26.3097 0.954811 1 6.4674e-09 
3598 1 -42.6757 26.3098 1.42499 1 1.11938e-08 
3608 1 -40.2316 26.3099 1.89513 1 1.93657e-09 
4022 1 -38.6021 26.31 0.0134386 1 2.32121e-09 
4019 1 -37.7874 26.3101 2.36525 1 1.20757e-09 
4023 1 -36.158 26.3102 0.483558 1 4.21974e-09 
4442 1 -33.7138 26.3103 0.953698 1 8.11244e-09 
4444 1 -31.2697 26.3104 1.42389 1 8.95283e-09 
4864 1 -28.8255 26.3104 1.89409 1 2.26713e-09 
4866 1 -27.1961 26.3104 0.0124303 1 8.76862e-10 
4867 1 -26.3814 26.3104 2.36427 1 7.90275e-10 
5266 1 -24.7519 26.3104 0.482611 1 2.39394e-09 