ITEM: TIMESTEP
0
ITEM: NUMBER OF ATOMS
25140
ITEM: BOX BOUNDS ss pp pp
-78.7643 118.258
0 33.3937
0 41.6492
ITEM: ATOMS id type x y z c_cna c_csd 
86 4 -78.6074 1.347 0.938598 5 37.1712 
114 4 -76.2555 0.790439 1.53359 1 9.98725e-16 
390 4 -73.9036 0.233878 2.12857 1 1.19852e-15 
391 4 -73.1196 2.2746 0.938598 1 1.00092e-15 
393 4 -72.1788 0.0483575 0.343609 1 1.19692e-15 
790 4 -70.7677 1.71804 1.53359 1 7.5181e-10 
843 1 -68.4158 1.16148 2.12855 1 8.30974e-09 
1312 1 -66.6911 0.975982 0.343537 1 4.95161e-09 
1313 1 -64.3391 0.419478 0.938444 1 3.38755e-09 
1786 1 -62.928 2.08918 2.12837 1 2.31482e-09 
1789 1 -61.2032 1.90367 0.343344 1 2.21813e-09 
2319 1 -58.8513 1.34714 0.938244 1 7.31774e-09 
2320 1 -56.4994 0.790614 1.53311 1 2.2877e-09 
2851 1 -54.1474 0.234088 2.12798 1 6.73455e-09 
2798 1 -53.3635 2.27479 0.93798 1 7.20285e-09 
2852 1 -52.4227 0.048547 0.342914 1 3.89057e-09 
3327 1 -51.0115 1.71826 1.53283 1 6.93323e-09 
3328 1 -48.6596 1.16173 2.12769 1 4.71859e-09 
3804 1 -46.9348 0.976206 0.34264 1 8.18311e-09 
3858 1 -44.5829 0.41968 0.937493 1 8.5259e-09 
4334 1 -43.1717 2.08942 2.12739 1 4.68386e-09 
4336 1 -41.447 1.90394 0.342342 1 3.09853e-09 
4812 1 -39.095 1.34746 0.937228 1 1.24614e-08 
4865 1 -36.743 0.790986 1.5321 1 2.70894e-08 
5343 1 -34.391 0.234519 2.12701 1 5.4086e-08 
5344 1 -33.6072 2.2753 0.936968 1 1.86244e-08 
5346 1 -32.6663 0.0490791 0.341983 1 4.8369e-08 
5819 1 -31.2553 1.71887 1.5319 1 4.16768e-08 
5872 1 -28.9034 1.16242 2.12682 1 1.35787e-07 
6352 1 -27.1791 0.97708 0.341668 1 6.29388e-07 
6353 1 -24.8275 0.420714 0.936507 1 1.62112e-06 
6826 1 -23.4171 2.09078 2.12623 1 5.73497e-06 
6829 1 -21.6929 1.90553 0.340761 1 1.27691e-05 
7359 1 -19.3426 1.34957 0.934991 1 3.67854e-05 
7360 1 -16.9935 0.793827 1.52891 1 0.000105036 
7838 1 -13.8566 2.27861 0.9341 1 0.000119999 
7891 1 -14.6467 0.238301 2.12261 1 0.000300386 
7892 1 -12.9208 0.0530994 0.335263 1 0.000337409 
8367 1 -11.5105 1.72346 1.52878 1 0.000391549 
8368 1 -9.16712 1.16873 2.12386 1 0.00125871 
8844 1 -7.42827 0.982888 0.346101 1 0.0027612 
8898 1 -5.07583 0.436847 0.932476 1 0.00753832 
9362 1 -3.61016 2.08674 2.12115 5 0.460618 
9364 1 -1.81553 1.9708 0.0269621 5 4.55682 
9365 1 -1.25796 1.61351 2.28356 5 5.1468 
10203 2 0.931867 1.1714 1.17117 5 0.625964 
10417 2 3.40215 0.716489 0.573045 1 0.0327663 
10419 2 2.89204 2.36595 2.34893 1 0.057791 
10422 2 5.30621 1.83068 1.75362 1 0.00421674 
10768 2 7.69217 1.27738 1.15877 1 0.001709 
10770 2 9.58658 2.38033 2.3471 1 0.00046181 
10771 2 10.057 0.717417 0.562192 1 0.000398192 
11172 2 11.9447 1.82447 1.75113 1 0.000137323 
11212 2 14.2994 1.2676 1.1555 1 4.39858e-05 
11687 2 16.6526 0.710451 0.560399 1 1.55889e-05 
11689 2 16.1836 2.37911 2.34491 1 1.97474e-05 
11692 2 18.5358 1.82251 1.74994 1 7.42816e-06 
87 4 -77.1962 3.01668 2.12857 5 12.3904 
336 4 -76.4123 5.05741 0.938598 1 9.01162e-16 
337 4 -75.4715 2.83116 0.343609 1 1.2994e-15 
338 4 -74.0604 4.50084 1.53359 1 1.99842e-16 
789 4 -71.7085 3.94428 2.12857 1 5.00681e-16 
791 4 -69.9837 3.75876 0.343609 1 6.42033e-09 
1256 1 -67.6318 3.20221 0.938544 1 5.12768e-09 
1257 1 -66.2207 4.87192 2.12846 1 1.21109e-09 
1310 1 -65.2799 2.6457 1.53345 1 1.37123e-09 
1732 1 -64.4959 4.68644 0.343441 1 2.77709e-09 
1787 1 -62.144 4.12992 0.938368 1 3.32405e-09 
2263 1 -59.7921 3.57337 1.53328 1 7.30939e-09 
2317 1 -57.4401 3.01684 2.12816 1 6.08361e-09 
2741 1 -56.6562 5.05756 0.938139 1 5.70081e-09 
2795 1 -54.3042 4.50104 1.533 1 4.19097e-09 
2797 1 -55.7154 2.83132 0.343098 1 2.22101e-09 
3270 1 -51.9523 3.9445 2.12788 1 8.74728e-09 
3273 1 -50.2276 3.75898 0.342802 1 2.0753e-09 
3801 1 -46.4645 4.87216 2.12758 1 4.15949e-09 
3803 1 -47.8756 3.20245 0.937671 1 1.77912e-09 
3805 1 -45.5237 2.64592 1.53254 1 3.63941e-09 
4280 1 -44.7397 4.68665 0.342524 1 7.07647e-09 
4281 1 -42.3878 4.13016 0.937394 1 4.36348e-09 
4811 1 -40.0358 3.57368 1.53226 1 5.99809e-09 
4813 1 -37.6838 3.0172 2.12715 1 1.61523e-08 
5288 1 -36.9 5.05797 0.937134 1 1.69326e-08 
5289 1 -35.9592 2.83175 0.342072 1 1.53834e-08 
5290 1 -34.5481 4.50153 1.53199 1 2.88194e-08 
5818 1 -32.1962 3.9451 2.12688 1 7.2899e-08 
5820 1 -30.4716 3.75971 0.341814 1 2.59456e-07 
6296 1 -28.1199 3.20334 0.936672 1 7.65097e-07 
6297 1 -26.709 4.87324 2.12662 1 1.72205e-06 
6350 1 -25.7684 2.64701 1.53149 1 2.10872e-06 
6772 1 -24.9841 4.68785 0.341566 1 2.00761e-06 
6827 1 -22.6328 4.13171 0.936271 1 6.42498e-06 
7303 1 -20.2821 3.57575 1.53082 1 1.98429e-05 
7357 1 -17.9324 3.02006 2.12515 1 5.99321e-05 
7781 1 -17.1427 5.05977 0.937227 1 1.978e-05 
7837 1 -16.2053 2.83412 0.339894 1 3.91166e-05 
7835 1 -14.7912 4.50384 1.53228 1 5.74665e-05 
8310 1 -12.4399 3.94776 2.12692 1 0.000190278 
8313 1 -10.706 3.75979 0.345723 1 0.000528867 
8843 1 -8.34699 3.20192 0.941738 1 0.00173537 
8841 1 -6.89054 4.85321 2.12454 1 0.00999428 
8845 1 -5.97591 2.64486 1.53299 1 0.00752219 
9308 1 -5.13378 4.65575 0.35173 1 0.190118 
9309 1 -2.52479 4.04819 1.11045 5 4.41734 
10204 2 -0.0251918 3.44018 0.782983 1 0.800776 
10205 2 1.9132 4.62664 1.77706 1 0.0576089 
10420 2 4.29227 4.0326 1.1597 1 0.0176342 
10458 2 6.70386 3.48613 0.564808 1 0.00292886 
10772 2 8.61993 4.59509 1.75106 1 0.00109657 
10775 2 10.9884 4.04497 1.15616 1 0.000321467 
11213 2 13.3496 3.49122 0.560524 1 0.000101756 
11214 2 15.2371 4.60368 1.74961 1 2.99328e-05 
11690 2 17.5916 4.04798 1.15479 1 9.96707e-06 
77 4 -78.7642 5.61397 0.343609 5 37.1712 
290 4 -77.353 7.28365 1.53359 5 12.3904 
334 4 -75.0011 6.72709 2.12857 1 7.00681e-16 
735 4 -73.2764 6.54157 0.343609 1 3.99563e-16 
736 4 -70.9245 5.98501 0.938598 1 1.50477e-09 
1198 4 -69.5134 7.65469 2.12857 1 2.04211e-08 
1201 1 -67.7886 7.4692 0.343544 1 1.70036e-09 
1255 1 -68.5726 5.42845 1.53355 1 4.42027e-09 
1731 1 -65.4367 6.91267 0.938457 1 1.70959e-09 
1733 1 -63.0848 6.35615 1.53337 1 5.2555e-09 
2262 1 -60.7329 5.79961 2.12829 1 5.38293e-09 
2264 1 -59.0081 5.61409 0.343252 1 4.47063e-09 
2740 1 -57.597 7.28381 1.53314 1 3.87439e-09 
2742 1 -55.245 6.72729 2.12802 1 4.74316e-09 
3216 1 -53.5203 6.54175 0.342947 1 4.38104e-09 
3271 1 -51.1684 5.98522 0.937822 1 5.10085e-09 
3746 1 -49.7572 7.65493 2.1277 1 3.12798e-09 
3747 1 -48.8164 5.42869 1.53269 1 2.39552e-09 
3748 1 -48.0325 7.46941 0.342654 1 4.5201e-09 
4224 1 -45.6805 6.91288 0.937542 1 1.35514e-08 
4278 1 -43.3286 6.35639 1.53241 1 5.79352e-09 
4754 1 -40.9766 5.79989 2.12729 1 2.82816e-09 
4757 1 -39.2519 5.61444 0.342247 1 4.68371e-09 
5232 1 -37.8407 7.28419 1.53216 1 1.2803e-08 
5286 1 -35.4889 6.72775 2.12705 1 3.48652e-08 
5764 1 -33.7641 6.54233 0.341975 1 7.83347e-08 
5765 1 -31.4123 5.98592 0.93684 1 2.24505e-07 
6238 1 -30.0011 7.65573 2.12681 1 3.19559e-07 
6241 1 -28.2761 7.47028 0.341884 1 2.01663e-07 
6295 1 -29.0606 5.42956 1.53173 1 6.14961e-07 
6771 1 -25.9243 6.91394 0.936869 1 6.1013e-07 
6773 1 -23.5726 6.35774 1.53182 1 2.00302e-06 
7302 1 -21.2211 5.80169 2.12674 1 6.50849e-06 
7304 1 -19.4946 5.61581 0.342148 1 7.90902e-06 
7780 1 -18.081 7.2853 1.53366 1 3.81694e-05 
7782 1 -15.727 6.72886 2.12939 1 9.69175e-05 
8256 1 -13.999 6.54159 0.346331 1 0.000340356 
8311 1 -11.6399 5.98334 0.942663 1 0.000968271 
8786 1 -10.2176 7.64722 2.13357 1 0.00253055 
8787 1 -9.27307 5.422 1.53694 1 0.00287505 
8788 1 -8.50013 7.46046 0.352212 1 0.00458237 
9252 1 -6.11368 6.88706 0.942623 1 0.0475558 
9306 1 -3.61971 6.2636 1.41458 5 5.30264 
9032 1 -1.24128 5.84265 0.101279 5 4.74075 
9697 1 -1.46179 7.45253 1.90916 5 3.71639 
9698 1 -0.506764 5.20649 2.37944 5 0.844134 
10207 2 0.91361 6.88698 1.19102 1 0.324992 
10210 2 3.32374 6.25842 0.564205 1 0.12923 
10424 2 5.29667 7.36503 1.749 1 0.0192547 
10426 2 6.24596 5.14515 2.34348 1 0.00412306 
10460 2 7.66428 6.80941 1.15717 1 0.0099585 
10773 2 10.0339 6.26212 0.56171 1 0.00335673 
10779 2 11.9334 7.38039 1.74858 1 0.000728391 
11175 2 12.8811 5.15833 2.34428 1 9.92611e-05 
11216 2 14.2909 6.82729 1.15452 1 0.000223862 
11219 2 16.647 6.27275 0.559885 1 6.77368e-05 
11694 2 18.5325 7.3862 1.74944 1 1.90306e-05 
11696 2 19.4756 5.1608 2.34453 1 3.72527e-06 
289 4 -78.2938 9.50989 2.12857 5 30.976 
291 4 -76.5691 9.32437 0.343609 5 6.1952 
679 4 -74.2172 8.76781 0.938598 1 1.00236e-15 
733 4 -71.8653 8.21125 1.53359 1 5.00643e-16 
1146 4 -71.0813 10.252 0.343609 1 1.67407e-09 
1199 1 -68.7294 9.69542 0.938559 1 5.51713e-09 
1675 1 -66.3775 9.1389 1.53346 1 3.38516e-09 
1729 1 -64.0256 8.58238 2.12837 1 1.00761e-08 
2208 1 -62.3008 8.39687 0.343356 1 2.5228e-09 
2206 1 -60.8896 10.0666 1.53328 1 2.66036e-09 
2209 1 -59.9489 7.84034 0.938251 1 2.8816e-09 
2683 1 -58.5377 9.51005 2.12815 1 2.30247e-09 
2686 1 -56.813 9.32453 0.343091 1 3.57852e-09 
3215 1 -54.4611 8.768 0.937963 1 1.96644e-09 
3217 1 -52.1091 8.21147 1.53282 1 4.07298e-09 
3692 1 -51.3252 10.2522 0.342773 1 9.80676e-09 
3693 1 -48.9732 9.69566 0.937658 1 4.16637e-09 
4223 1 -46.6213 9.13912 1.53256 1 6.76164e-09 
4225 1 -44.2694 8.58261 2.12744 1 5.91862e-09 
4700 1 -42.5446 8.39713 0.342394 1 2.68849e-09 
4701 1 -41.1334 10.0669 1.5323 1 3.74206e-09 
4755 1 -40.1927 7.84065 0.93728 1 5.62417e-09 
5231 1 -38.7815 9.5104 2.12718 1 4.82518e-09 
5233 1 -37.0567 9.32495 0.342144 1 1.33531e-08 
5708 1 -34.7048 8.76851 0.93702 1 4.5246e-08 
5762 1 -32.353 8.21211 1.53191 1 1.12786e-07 
6186 1 -31.5687 10.2528 0.341984 1 7.35454e-08 
6239 1 -29.2166 9.6964 0.936973 1 1.71123e-07 
6715 1 -26.8646 9.14002 1.53201 1 4.31735e-07 
6769 1 -24.5125 8.58368 2.12714 1 1.10165e-06 
7246 1 -21.3746 10.0676 1.53308 1 1.73621e-05 
7248 1 -22.7868 8.398 0.342545 1 5.94043e-06 
7249 1 -20.4341 7.84163 0.937996 1 1.52026e-05 
7723 1 -19.021 9.511 2.12894 1 4.83916e-05 
7726 1 -17.2965 9.32501 0.344742 1 8.73061e-05 
8255 1 -14.9413 8.76772 0.941384 1 0.000265609 
8257 1 -12.5827 8.20913 1.53806 1 0.000813457 
8732 1 -11.8166 10.2521 0.343967 1 0.000343211 
8733 1 -9.46265 9.69124 0.939535 1 0.00172849 
9251 1 -7.10107 9.12089 1.53828 1 0.0133109 
9253 1 -4.71158 8.53109 2.1525 5 5.38372 
9646 1 -3.14086 8.37134 0.390648 5 4.72953 
9647 1 -1.82937 9.94778 1.63107 5 5.49746 
10080 2 0.0208847 9.17978 0.432015 5 4.56341 
10211 2 1.99503 10.1523 1.76131 5 0.924265 
10208 2 2.53317 8.52712 0.00805775 1 0.191388 
10209 2 2.92578 7.93422 2.35499 1 0.0622829 
10214 2 4.40656 9.59703 1.16937 1 0.0150752 
10461 2 6.75897 9.04227 0.568608 1 0.00248371 
10462 2 8.65316 10.1633 1.74815 1 0.000463005 
10776 2 9.57625 7.93273 2.34171 1 0.00186928 
10777 2 11.0012 9.60866 1.15578 1 0.00024589 
10809 2 13.3528 9.05358 0.561075 1 0.000160005 
11218 2 16.1789 7.94178 2.34375 1 5.91927e-05 
11220 2 15.2393 10.1683 1.74942 1 4.0067e-05 
11223 2 17.5916 9.61234 1.15494 1 2.12233e-05 
267 4 -77.5098 11.5506 0.938598 5 12.3904 
678 4 -75.1579 10.9941 1.53359 1 2.99443e-16 
680 4 -72.806 10.4375 2.12857 1 6.00682e-16 
1145 4 -72.0221 12.4782 0.938598 1 1.10116e-15 
1147 4 -69.6702 11.9217 1.53359 1 1.38618e-08 
1674 1 -67.3182 11.3651 2.1285 1 3.9173e-09 
1676 1 -65.5935 11.1796 0.343473 1 8.94805e-10 
2153 1 -63.2416 10.6231 0.938381 1 1.79686e-09 
2154 1 -61.8304 12.2928 2.1283 1 2.02531e-09 
2635 1 -60.1057 12.1073 0.343259 1 2.47345e-09 
2684 1 -57.7537 11.5508 0.938132 1 4.67274e-09 
3160 1 -55.4018 10.9942 1.53299 1 1.70412e-09 
3213 1 -53.0499 10.4377 2.12784 1 4.27184e-09 
3641 1 -52.2659 12.4784 0.937822 1 4.28764e-09 
3690 1 -49.914 11.9219 1.53268 1 7.5147e-09 
4168 1 -47.5621 11.3654 2.12757 1 3.98884e-09 
4171 1 -45.8373 11.1798 0.342527 1 1.11095e-08 
4699 1 -43.4854 10.6233 0.937417 1 2.71461e-09 
4697 1 -42.0742 12.2931 2.12732 1 3.57827e-09 
5179 1 -40.3494 12.1076 0.342292 1 1.97268e-09 
5180 1 -37.9975 11.5512 0.93718 1 6.23121e-09 
5707 1 -35.6455 10.9947 1.53206 1 1.39387e-08 
5709 1 -33.2936 10.4383 2.12695 1 3.44691e-08 
6185 1 -32.5094 12.479 0.936994 1 1.06551e-07 
6187 1 -30.1573 11.9225 1.53199 1 2.55986e-07 
6714 1 -27.8051 11.3661 2.12704 1 6.92988e-07 
6716 1 -26.0801 11.1805 0.342232 1 2.12799e-06 
7193 1 -23.7276 10.6241 0.937539 1 6.10139e-06 
7194 1 -22.316 12.2937 2.12766 1 1.13302e-05 
7675 1 -20.5923 12.1082 0.342753 1 1.02773e-05 
7724 1 -18.2395 11.5516 0.938546 1 3.44315e-05 
8200 1 -15.8856 10.9945 1.53465 1 0.0001183 
8253 1 -13.5297 10.4364 2.13091 1 0.00043125 
8681 1 -12.7643 12.481 0.934367 1 0.000451584 
8730 1 -10.4205 11.9241 1.52754 1 0.00182457 
9196 1 -8.08673 11.366 2.12 1 0.0102469 
9199 1 -6.38394 11.1896 0.326566 1 0.0196243 
9645 1 -4.07798 10.6251 0.92288 1 0.11982 
9643 1 -2.65526 12.2649 2.10794 1 0.165311 
9919 1 -0.880852 11.9829 0.326695 5 6.90754 
10081 2 1.30348 12.346 1.17183 5 4.89969 
10212 2 3.53135 11.8015 0.536747 1 0.0624547 
10428 2 6.31153 10.7139 2.33927 1 0.00212411 
10464 2 7.73096 12.3991 1.15209 1 0.00156312 
10467 2 10.0725 11.8423 0.561392 1 0.00043473 
10783 2 12.8883 10.7246 2.34333 1 6.51512e-05 
10811 2 14.3025 12.3975 1.15566 1 3.91743e-05 
11221 2 16.653 11.8401 0.560909 1 1.32591e-05 
11698 2 19.4758 10.7259 2.3445 1 6.19687e-06 
265 4 -78.4506 13.7769 1.53359 5 30.976 
626 4 -76.0987 13.2203 2.12857 1 7.00681e-16 
627 4 -75.3147 15.261 0.938598 1 1.30116e-15 
629 4 -74.374 13.0348 0.343609 1 2.99563e-16 
1097 4 -72.9628 14.7045 1.53359 1 1.19984e-15 
1143 4 -70.6109 14.1479 2.12857 1 1.22846e-09 
1626 4 -68.8862 13.9624 0.343609 1 2.63503e-08 
1627 1 -66.5343 13.4059 0.938509 1 1.8181e-09 
2104 1 -65.1231 15.0756 2.12845 1 3.34468e-09 
2152 1 -64.1823 12.8493 1.53341 1 1.83032e-09 
2107 1 -63.3983 14.8901 0.343413 1 7.5758e-10 
2634 1 -61.0464 14.3335 0.938301 1 3.11695e-09 
2636 1 -58.6945 13.777 1.53317 1 4.43293e-09 
3159 1 -56.3426 13.2205 2.12803 1 7.86408e-09 
3116 1 -55.5586 15.2612 0.938038 1 1.92223e-09 
3161 1 -54.6178 13.0349 0.342966 1 3.41116e-09 
3640 1 -53.2067 14.7047 1.53289 1 1.80998e-09 
3642 1 -50.8548 14.1481 2.12776 1 2.163e-09 
4124 1 -49.13 13.9626 0.342697 1 2.50087e-09 
4169 1 -46.7781 13.4061 0.937571 1 3.85912e-09 
4646 1 -45.3669 15.0758 2.1275 1 4.61756e-09 
4647 1 -44.4261 12.8496 1.53245 1 5.78644e-09 
4648 1 -43.6421 14.8903 0.34245 1 4.66538e-09 
5132 1 -41.2902 14.3338 0.937322 1 4.17379e-09 
5177 1 -38.9382 13.7774 1.53221 1 4.79378e-09 
5655 1 -36.5862 13.2209 2.12709 1 1.31695e-08 
5656 1 -35.8022 15.2616 0.937076 1 3.31683e-08 
5658 1 -34.8614 13.0354 0.342078 1 5.18502e-08 
6137 1 -33.4502 14.7051 1.532 1 7.35966e-08 
6183 1 -31.0981 14.1487 2.12697 1 2.31424e-07 
6666 1 -29.3733 13.9632 0.342006 1 4.04942e-07 
6667 1 -27.0212 13.4067 0.937068 1 1.22935e-06 
7144 1 -25.6102 15.0765 2.12694 1 1.30476e-06 
7147 1 -23.8862 14.8912 0.341797 1 1.14991e-06 
7192 1 -24.6688 12.8502 1.53226 1 3.70767e-06 
7674 1 -21.5344 14.3347 0.936884 1 3.2836e-06 
7676 1 -19.1825 13.7783 1.53209 1 9.69339e-06 
8156 1 -16.0531 15.2641 0.933921 1 0.000119446 
8199 1 -16.8304 13.2215 2.12748 1 2.88179e-05 
8201 1 -15.112 13.0373 0.340393 1 0.00014017 
8680 1 -13.7057 14.7081 1.52766 1 0.000308262 
8682 1 -11.3615 14.1519 2.12153 1 0.000774648 
9152 1 -9.64005 13.9695 0.33102 1 0.00133578 
9197 1 -7.30262 13.4142 0.924384 1 0.00315077 
9592 1 -5.92062 15.0911 2.11346 1 0.012392 
9593 1 -4.97302 12.8492 1.52258 1 0.0119181 
9594 1 -4.18234 14.8948 0.345652 1 0.0228331 
9879 1 -1.8909 14.3092 0.996822 5 3.84272 
10082 2 0.344116 14.4443 0.540145 5 5.49988 
10215 2 3.12549 13.5007 2.344 1 0.0759864 
10216 2 4.44615 15.2013 1.15568 1 0.0211804 
10218 2 5.40333 12.9501 1.73925 1 0.0094918 
10241 2 6.78499 14.6399 0.558899 1 0.00317706 
10466 2 9.60715 13.5143 2.34281 1 0.000486511 
10471 2 11.0113 15.1868 1.15589 1 0.000249581 
10781 2 11.9535 12.9556 1.74969 1 0.00013501 
10812 2 13.362 14.6272 0.561249 1 8.79347e-05 
11224 2 16.1856 13.5099 2.3447 1 1.67814e-05 
11225 2 17.5958 15.1805 1.15543 1 1.38822e-05 
11227 2 18.5362 12.953 1.75003 1 4.23329e-06 
592 4 -77.6666 15.8176 0.343609 5 12.3904 
593 4 -76.2555 17.4873 1.53359 1 1.09984e-15 
1096 4 -73.9036 16.9307 2.12857 1 9.00682e-16 
1098 4 -72.1788 16.7452 0.343609 1 6.99561e-16 
1583 4 -69.8269 16.1886 0.938598 1 4.6287e-09 
1584 1 -68.4158 17.8583 2.12855 1 8.3098e-09 
1624 1 -67.475 15.6321 1.53354 1 7.05068e-09 
2068 1 -66.6911 17.6728 0.343537 1 4.9511e-09 
2105 1 -64.3391 17.1163 0.938444 1 3.38752e-09 
2590 1 -61.9872 16.5598 1.53335 1 3.15611e-09 
2632 1 -59.6353 16.0032 2.12824 1 4.3783e-09 
3113 1 -56.4994 17.4874 1.53311 1 2.28769e-09 
3115 1 -57.9105 15.8177 0.34318 1 3.2478e-09 
3596 1 -54.1474 16.9309 2.12798 1 6.73453e-09 
3599 1 -52.4227 16.7454 0.342914 1 3.89057e-09 
4121 1 -48.6596 17.8586 2.12769 1 4.7186e-09 
4123 1 -50.0708 16.1889 0.937763 1 2.14858e-09 
4125 1 -47.7188 15.6323 1.53263 1 1.68377e-09 
4606 1 -46.9348 17.673 0.34264 1 8.18311e-09 
4607 1 -44.5829 17.1165 0.937493 1 8.52591e-09 
5131 1 -42.2309 16.56 1.53235 1 8.4746e-09 
5133 1 -39.879 16.0036 2.12724 1 5.57537e-09 
5615 1 -38.1542 15.8181 0.342188 1 2.01359e-08 
5616 1 -36.743 17.4878 1.5321 1 2.70894e-08 
6136 1 -34.391 16.9313 2.12701 1 5.40859e-08 
6138 1 -32.6663 16.7459 0.341983 1 4.8369e-08 
6623 1 -30.3144 16.1895 0.936939 1 1.23566e-07 
6624 1 -28.9034 17.8593 2.12682 1 1.35787e-07 
6664 1 -27.9623 15.633 1.53191 1 3.95542e-07 
7108 1 -27.1791 17.6739 0.341668 1 6.29388e-07 
7145 1 -24.8275 17.1175 0.936507 1 1.62112e-06 
7630 1 -22.476 16.5612 1.53135 1 4.10539e-06 
7672 1 -20.1248 16.0049 2.12611 1 1.03332e-05 
8155 1 -18.4023 15.82 0.339933 1 4.55435e-05 
8153 1 -16.9935 17.4907 1.52891 1 0.000105036 
8636 1 -14.6467 16.9351 2.12261 1 0.000300386 
8639 1 -12.9208 16.7499 0.335263 1 0.000337409 
9151 1 -10.5786 16.1954 0.928383 1 0.000967781 
9149 1 -9.16712 17.8656 2.12386 1 0.00125871 
9153 1 -8.24412 15.6422 1.52228 1 0.00324895 
9552 1 -7.42827 17.6797 0.346101 1 0.0027612 
9553 1 -5.07583 17.1337 0.932476 1 0.00753832 
9878 1 -2.74649 16.5574 1.52471 1 0.402456 
9880 1 -0.347427 16.0361 2.31722 5 4.19842 
10085 2 0.931867 17.8682 1.17117 5 0.625964 
10083 2 2.08395 15.7175 1.75355 1 0.10652 
10088 2 3.40215 17.4133 0.573045 1 0.0327663 
10222 2 6.30864 16.3123 2.34672 1 0.00458825 
10243 2 7.69217 17.9742 1.15877 1 0.001709 
10468 2 8.6607 15.7481 1.75085 1 0.000838488 
10469 2 10.057 17.4142 0.562192 1 0.000398192 
10785 2 12.8943 16.2956 2.34534 1 0.000119456 
10815 2 14.2994 17.9644 1.1555 1 4.39858e-05 
10813 2 15.2448 15.7379 1.75031 1 4.11803e-05 
10818 2 16.6526 17.4073 0.560399 1 1.55889e-05 
11231 2 19.4782 16.2929 2.34495 1 7.12932e-06 
589 4 -77.1962 19.7135 2.12857 5 12.3904 
591 4 -78.6074 18.0438 0.938598 5 37.1712 
1060 4 -75.4715 19.528 0.343609 1 7.99564e-16 
1061 4 -73.1196 18.9714 0.938598 1 1.00116e-15 
1549 4 -69.9837 20.4556 0.343609 1 6.4198e-09 
1582 4 -70.7677 18.4149 1.53359 1 7.51751e-10 
2067 1 -67.6318 19.899 0.938544 1 5.12842e-09 
2069 1 -65.2799 19.3425 1.53345 1 1.37123e-09 
2589 1 -62.928 18.786 2.12837 1 2.31482e-09 
2591 1 -61.2032 18.6005 0.343344 1 2.21813e-09 
3075 1 -59.7921 20.2702 1.53328 1 7.30939e-09 
3076 1 -58.8513 18.044 0.938244 1 7.31771e-09 
3077 1 -57.4401 19.7137 2.12816 1 6.08364e-09 
3564 1 -55.7154 19.5281 0.343098 1 2.221e-09 
3597 1 -53.3635 18.9716 0.93798 1 7.20283e-09 
4083 1 -51.0115 18.4151 1.53283 1 6.93323e-09 
4084 1 -50.2276 20.4558 0.342802 1 2.07531e-09 
4571 1 -47.8756 19.8993 0.937671 1 1.77911e-09 
4604 1 -45.5237 19.3427 1.53254 1 3.6394e-09 
5091 1 -43.1717 18.7862 2.12739 1 4.68385e-09 
5094 1 -41.447 18.6008 0.342342 1 3.09853e-09 
5578 1 -40.0358 20.2705 1.53226 1 5.99809e-09 
5614 1 -39.095 18.0443 0.937228 1 1.24614e-08 
5612 1 -37.6838 19.714 2.12715 1 1.61523e-08 
6100 1 -35.9592 19.5286 0.342072 1 1.53834e-08 
6101 1 -33.6072 18.9721 0.936968 1 1.86244e-08 
6622 1 -31.2553 18.4157 1.5319 1 4.16769e-08 
6589 1 -30.4716 20.4565 0.341814 1 2.59456e-07 
7107 1 -28.1199 19.9002 0.936672 1 7.65096e-07 
7109 1 -25.7684 19.3438 1.53149 1 2.10872e-06 
7629 1 -23.4171 18.7876 2.12623 1 5.73497e-06 
7631 1 -21.6929 18.6024 0.340761 1 1.27691e-05 
8115 1 -20.2821 20.2726 1.53082 1 1.98429e-05 
8116 1 -19.3426 18.0464 0.934991 1 3.67854e-05 
8117 1 -17.9324 19.7169 2.12515 1 5.99321e-05 
8604 1 -16.2053 19.5309 0.339894 1 3.91166e-05 
8637 1 -13.8566 18.9754 0.9341 1 0.000119999 
9111 1 -11.5105 18.4203 1.52878 1 0.000391549 
9112 1 -10.706 20.4566 0.345723 1 0.000528867 
9517 1 -8.34699 19.8987 0.941738 1 0.00173537 
9550 1 -5.97591 19.3417 1.53299 1 0.00752219 
9838 1 -3.61016 18.7836 2.12115 5 0.460618 
9841 1 -1.81553 18.6676 0.0269621 5 4.55682 
9876 1 -1.25796 18.3103 2.28356 5 5.1468 
10030 2 -0.0251918 20.137 0.782983 1 0.800776 
10087 2 2.89204 19.0628 2.34893 1 0.057791 
10220 2 5.30621 18.5275 1.75362 1 0.00421674 
10244 2 6.70386 20.183 0.564808 1 0.00292886 
10472 2 9.58658 19.0772 2.3471 1 0.00046181 
10475 2 11.9447 18.5213 1.75113 1 0.000137323 
10491 2 13.3496 20.188 0.560524 1 0.000101756 
10817 2 16.1836 19.0759 2.34491 1 1.97474e-05 
11229 2 18.5358 18.5193 1.74994 1 7.42816e-06 
572 4 -78.7642 22.3108 0.343609 5 37.1712 
1029 4 -76.4123 21.7542 0.938598 1 1.10116e-15 
1058 4 -74.0604 21.1977 1.53359 1 7.99841e-16 
1546 4 -71.7085 20.6411 2.12857 1 7.00681e-16 
1547 4 -70.9245 22.6818 0.938598 1 1.5047e-09 
2035 1 -68.5726 22.1253 1.53355 1 4.4197e-09 
2065 1 -66.2207 21.5688 2.12846 1 1.21125e-09 
2557 1 -64.4959 21.3833 0.343441 1 2.77715e-09 
2555 1 -63.0848 23.053 1.53337 1 5.25549e-09 
2558 1 -62.144 20.8267 0.938368 1 3.32406e-09 
3043 1 -60.7329 22.4964 2.12829 1 5.38296e-09 
3046 1 -59.0081 22.3109 0.343252 1 4.47062e-09 
3563 1 -56.6562 21.7544 0.938139 1 5.70081e-09 
3565 1 -54.3042 21.1979 1.533 1 4.19095e-09 
4055 1 -51.1684 22.682 0.937822 1 5.10085e-09 
4082 1 -51.9523 20.6413 2.12788 1 8.74727e-09 
4570 1 -48.8164 22.1255 1.53269 1 2.39551e-09 
4572 1 -46.4645 21.569 2.12758 1 4.15949e-09 
5063 1 -44.7397 21.3835 0.342524 1 7.07646e-09 
5064 1 -43.3286 23.0532 1.53241 1 5.79351e-09 
5092 1 -42.3878 20.827 0.937394 1 4.36349e-09 
5577 1 -40.9766 22.4967 2.12729 1 2.82815e-09 
5579 1 -39.2519 22.3113 0.342247 1 4.68371e-09 
6069 1 -36.9 21.7548 0.937134 1 1.69326e-08 
6098 1 -34.5481 21.1984 1.53199 1 2.88194e-08 
6586 1 -32.1962 20.6419 2.12688 1 7.2899e-08 
6587 1 -31.4123 22.6827 0.93684 1 2.24505e-07 
7075 1 -29.0606 22.1264 1.53173 1 6.14961e-07 
7105 1 -26.709 21.5701 2.12662 1 1.72205e-06 
7595 1 -23.5726 23.0546 1.53182 1 2.00302e-06 
7597 1 -24.9841 21.3847 0.341566 1 2.00761e-06 
7598 1 -22.6328 20.8285 0.936271 1 6.42498e-06 
8083 1 -21.2211 22.4985 2.12674 1 6.50849e-06 
8086 1 -19.4946 22.3126 0.342148 1 7.90902e-06 
8603 1 -17.1427 21.7566 0.937227 1 1.978e-05 
8605 1 -14.7912 21.2007 1.53228 1 5.74665e-05 
9083 1 -11.6399 22.6802 0.942663 1 0.000968271 
9110 1 -12.4399 20.6446 2.12692 1 0.000190278 
9516 1 -9.27307 22.1188 1.53694 1 0.00287505 
9518 1 -6.89054 21.55 2.12454 1 0.00999428 
9810 1 -5.13378 21.3526 0.35173 1 0.190118 
9811 1 -3.61971 22.9604 1.41458 5 5.30264 
9741 1 -1.24128 22.5395 0.101279 5 4.74075 
9839 1 -2.52479 20.745 1.11045 5 4.41734 
9993 1 -0.506764 21.9033 2.37944 5 0.844134 
10089 2 1.9132 21.3235 1.77706 1 0.0576089 
10090 2 3.32374 22.9552 0.564205 1 0.12923 
10092 2 4.29227 20.7294 1.1597 1 0.0176342 
10224 2 6.24596 21.842 2.34348 1 0.00412306 
10245 2 8.61993 21.2919 1.75106 1 0.00109657 
10250 2 10.0339 22.9589 0.56171 1 0.00335673 
10473 2 10.9884 20.7418 1.15616 1 0.000321467 
10479 2 12.8811 21.8552 2.34428 1 9.92611e-05 
10819 2 15.2371 21.3005 1.74961 1 2.99328e-05 
10820 2 16.647 22.9696 0.559885 1 6.77368e-05 
10822 2 17.5916 20.7448 1.15479 1 9.96707e-06 
11233 2 19.4756 21.8576 2.34453 1 3.72527e-06 
1028 4 -77.353 23.9805 1.53359 5 12.3904 
1030 4 -75.0011 23.4239 2.12857 1 6.00681e-16 
1521 4 -74.2172 25.4646 0.938598 1 6.01162e-16 
1522 4 -73.2764 23.2384 0.343609 1 1.99563e-16 
1523 4 -71.8653 24.9081 1.53359 1 5.99842e-16 
2034 4 -69.5134 24.3515 2.12857 1 2.04194e-08 
2036 1 -67.7886 24.166 0.343544 1 1.70028e-09 
2530 1 -65.4367 23.6095 0.938457 1 1.70952e-09 
2531 1 -64.0256 25.2792 2.12837 1 1.00761e-08 
3023 1 -62.3008 25.0937 0.343356 1 2.52284e-09 
3044 1 -59.9489 24.5372 0.938251 1 2.8816e-09 
3535 1 -57.597 23.9806 1.53314 1 3.87439e-09 
3561 1 -55.245 23.4241 2.12802 1 4.74319e-09 
4031 1 -54.4611 25.4648 0.937963 1 1.96641e-09 
4054 1 -53.5203 23.2386 0.342947 1 4.38105e-09 
4052 1 -52.1091 24.9083 1.53282 1 4.07298e-09 
4542 1 -49.7572 24.3518 2.1277 1 3.12799e-09 
4545 1 -48.0325 24.1662 0.342654 1 4.52012e-09 
5060 1 -44.2694 25.2794 2.12744 1 5.91862e-09 
5062 1 -45.6805 23.6097 0.937542 1 1.35514e-08 
5553 1 -42.5446 25.094 0.342394 1 2.68849e-09 
5554 1 -40.1927 24.5375 0.93728 1 5.62418e-09 
6068 1 -37.8407 23.981 1.53216 1 1.2803e-08 
6070 1 -35.4889 23.4246 2.12705 1 3.48652e-08 
6561 1 -34.7048 25.4653 0.93702 1 4.5246e-08 
6562 1 -33.7641 23.2392 0.341975 1 7.83347e-08 
6563 1 -32.353 24.9089 1.53191 1 1.12786e-07 
7074 1 -30.0011 24.3526 2.12681 1 3.19559e-07 
7076 1 -28.2761 24.1671 0.341884 1 2.01663e-07 
7570 1 -25.9243 23.6108 0.936869 1 6.1013e-07 
7571 1 -24.5125 25.2805 2.12714 1 1.10165e-06 
8063 1 -22.7868 25.0948 0.342545 1 5.94043e-06 
8084 1 -20.4341 24.5385 0.937996 1 1.52026e-05 
8575 1 -18.081 23.9821 1.53366 1 3.81694e-05 
8601 1 -15.727 23.4257 2.12939 1 9.69175e-05 
9059 1 -14.9413 25.4646 0.941384 1 0.000265609 
9082 1 -13.999 23.2384 0.346331 1 0.000340356 
9080 1 -12.5827 24.906 1.53806 1 0.000813457 
9488 1 -10.2176 24.344 2.13357 1 0.00253055 
9491 1 -8.50013 24.1573 0.352212 1 0.00458237 
9809 1 -6.11368 23.5839 0.942623 1 0.0475558 
9807 1 -4.71158 25.2279 2.1525 5 5.38372 
9976 1 -3.14086 25.0682 0.390648 5 4.72953 
9973 1 -1.46179 24.1494 1.90916 5 3.71639 
10031 2 0.91361 23.5838 1.19102 1 0.324992 
10034 2 2.53317 25.2239 0.00805775 1 0.191388 
10093 2 2.92578 24.631 2.35499 1 0.0622829 
10096 2 5.29667 24.0619 1.749 1 0.0192547 
10247 2 7.66428 23.5062 1.15717 1 0.0099585 
10249 2 9.57625 24.6296 2.34171 1 0.00186928 
10477 2 11.9334 24.0772 1.74858 1 0.000728391 
10493 2 14.2909 23.5241 1.15452 1 0.000223862 
10823 2 16.1789 24.6386 2.34375 1 5.91927e-05 
10826 2 18.5325 24.083 1.74944 1 1.90306e-05 
1004 4 -78.2938 26.2067 2.12857 5 30.976 
1005 4 -77.5098 28.2474 0.938598 5 18.5856 
1007 4 -76.5691 26.0212 0.343609 5 6.1952 
1501 4 -75.1579 27.6909 1.53359 1 6.99842e-16 
1519 4 -72.806 27.1343 2.12857 1 1.10068e-15 
2014 4 -71.0813 26.9488 0.343609 1 1.67386e-09 
2015 1 -68.7294 26.3922 0.938559 1 5.51751e-09 
2509 1 -67.3182 28.0619 2.1285 1 3.91688e-09 
2529 1 -66.3775 25.8357 1.53346 1 3.38528e-09 
2512 1 -65.5935 27.8765 0.343473 1 8.94861e-10 
3022 1 -63.2416 27.3199 0.938381 1 1.79689e-09 
3024 1 -60.8896 26.7634 1.53328 1 2.66037e-09 
3519 1 -57.7537 28.2476 0.938132 1 4.67275e-09 
3534 1 -58.5377 26.2069 2.12815 1 2.30249e-09 
3536 1 -56.813 26.0214 0.343091 1 3.57852e-09 
4030 1 -55.4018 27.6911 1.53299 1 1.7041e-09 
4032 1 -53.0499 27.1345 2.12784 1 4.27184e-09 
4526 1 -51.3252 26.949 0.342773 1 9.80678e-09 
4543 1 -48.9732 26.3925 0.937658 1 4.16638e-09 
5037 1 -47.5621 28.0622 2.12757 1 3.98883e-09 
5038 1 -46.6213 25.8359 1.53256 1 6.76165e-09 
5039 1 -45.8373 27.8766 0.342527 1 1.11095e-08 
5534 1 -43.4854 27.3202 0.937417 1 2.71461e-09 
5551 1 -41.1334 26.7637 1.5323 1 3.7421e-09 
6044 1 -38.7815 26.2072 2.12718 1 4.82517e-09 
6045 1 -37.9975 28.248 0.93718 1 6.23121e-09 
6047 1 -37.0567 26.0218 0.342144 1 1.33531e-08 
6541 1 -35.6455 27.6915 1.53206 1 1.39387e-08 
6559 1 -33.2936 27.1351 2.12695 1 3.44691e-08 
7054 1 -31.5687 26.9496 0.341984 1 7.35453e-08 
7055 1 -29.2166 26.3932 0.936973 1 1.71123e-07 
7549 1 -27.8051 28.0629 2.12704 1 6.92988e-07 
7552 1 -26.0801 27.8774 0.342232 1 2.12799e-06 
7569 1 -26.8646 25.8368 1.53201 1 4.31735e-07 
8062 1 -23.7276 27.3209 0.937539 1 6.10139e-06 
8064 1 -21.3746 26.7644 1.53308 1 1.73621e-05 
8559 1 -18.2395 28.2484 0.938546 1 3.44315e-05 
8574 1 -19.021 26.2078 2.12894 1 4.83916e-05 
8576 1 -17.2965 26.0218 0.344742 1 8.73061e-05 
9058 1 -15.8856 27.6913 1.53465 1 0.0001183 
9060 1 -13.5297 27.1332 2.13091 1 0.00043125 
9472 1 -11.8166 26.9489 0.343967 1 0.000343211 
9489 1 -9.46265 26.3881 0.939535 1 0.00172849 
9784 1 -8.08673 28.0628 2.12 1 0.0102469 
9785 1 -7.10107 25.8177 1.53828 1 0.0133109 
9786 1 -6.38394 27.8864 0.326566 1 0.0196243 
9957 1 -4.07798 27.3219 0.92288 1 0.11982 
9974 1 -1.82937 26.6446 1.63107 5 5.49746 
10032 2 0.0208847 25.8766 0.432015 5 4.56341 
10033 2 1.99503 26.8491 1.76131 5 0.924265 
10094 2 4.40656 26.2939 1.16937 1 0.0150752 
10100 2 6.31153 27.4107 2.33927 1 0.00212411 
10106 2 6.75897 25.7391 0.568608 1 0.00248371 
10251 2 8.65316 26.8602 1.74815 1 0.000463005 
10254 2 11.0012 26.3055 1.15578 1 0.00024589 
10481 2 12.8883 27.4215 2.34333 1 6.51512e-05 
10494 2 13.3528 25.7504 0.561075 1 0.000160005 
10495 2 15.2393 26.8652 1.74942 1 4.0067e-05 
10824 2 17.5916 26.3092 1.15494 1 2.12233e-05 
10830 2 19.4758 27.4227 2.3445 1 6.19687e-06 
998 4 -78.4506 30.4737 1.53359 5 30.976 
1500 4 -76.0987 29.9171 2.12857 1 9.00681e-16 
1502 4 -74.374 29.7316 0.343609 1 3.99563e-16 
1999 4 -72.0221 29.175 0.938598 1 8.01163e-16 
2012 4 -69.6702 28.6185 1.53359 1 1.38635e-08 
2501 4 -68.8862 30.6592 0.343609 1 2.63517e-08 
2510 1 -66.5343 30.1027 0.938509 1 1.81803e-09 
3006 1 -64.1823 29.5462 1.53341 1 1.83035e-09 
3020 1 -61.8304 28.9896 2.1283 1 2.02531e-09 
3516 1 -58.6945 30.4738 1.53317 1 4.43294e-09 
3518 1 -60.1057 28.8041 0.343259 1 2.47343e-09 
4014 1 -56.3426 29.9173 2.12803 1 7.86409e-09 
4017 1 -54.6178 29.7318 0.342966 1 3.41115e-09 
4525 1 -52.2659 29.1753 0.937822 1 4.28762e-09 
4527 1 -49.914 28.6187 1.53268 1 7.5147e-09 
5025 1 -49.13 30.6594 0.342697 1 2.50088e-09 
5026 1 -46.7781 30.1029 0.937571 1 3.85914e-09 
5533 1 -44.4261 29.5464 1.53245 1 5.7864e-09 
5535 1 -42.0742 28.9899 2.12732 1 3.57828e-09 
6032 1 -40.3494 28.8044 0.342292 1 1.97269e-09 
6033 1 -38.9382 30.4742 1.53221 1 4.79377e-09 
6540 1 -36.5862 29.9177 2.12709 1 1.31695e-08 
6542 1 -34.8614 29.7322 0.342078 1 5.18502e-08 
7039 1 -32.5094 29.1758 0.936994 1 1.06551e-07 
7052 1 -30.1573 28.6194 1.53199 1 2.55986e-07 
7541 1 -29.3733 30.6601 0.342006 1 4.04942e-07 