ITEM: TIMESTEP
0
ITEM: NUMBER OF ATOMS
29640
ITEM: BOX BOUNDS ss pp pp
-76.4493 122.425
0 33.3937
0 48.5199
ITEM: ATOMS id type x y z c_cna c_csd 
2081 4 -75.6417 1.62839 0.884183 5 18.5856 
2738 4 -73.219 2.18496 1.01187 1 8.00847e-16 
2739 4 -71.6039 0.515273 1.90565 1 6.97731e-16 
2777 4 -69.1813 1.07183 2.03334 1 1.75873e-10 
3477 1 -66.7587 1.62839 2.16102 1 1.03646e-08 
3480 1 -65.1436 0.515267 0.628769 1 3.24178e-09 
3517 1 -64.3361 2.18495 2.28862 1 5.77339e-09 
4239 1 -62.721 1.07184 0.756373 1 5.448e-10 
4240 1 -60.2983 1.62842 0.883972 1 1.00871e-09 
4999 1 -57.8757 2.18499 1.01155 1 1.01156e-09 
5000 1 -56.2607 0.515299 1.90528 1 5.20444e-09 
5040 1 -53.8381 1.07187 2.03286 1 5.42619e-09 
5756 1 -51.4154 1.62845 2.16047 1 6.20846e-09 
5759 1 -49.8003 0.515367 0.628197 1 8.33579e-09 
5796 1 -48.9928 2.18507 2.28803 1 7.43248e-09 
6519 1 -47.3777 1.07202 0.755727 1 8.16811e-09 
6520 1 -44.9551 1.62871 0.883204 1 1.27711e-09 
7278 1 -42.5325 2.18543 1.01066 1 3.28978e-09 
7279 1 -40.9174 0.515843 1.9043 1 8.68148e-09 
7319 1 -38.4947 1.07254 2.03173 1 2.56832e-08 
8021 1 -36.0721 1.62921 2.15921 1 7.38038e-08 
8024 1 -34.457 0.516151 0.62693 1 1.18602e-07 
8061 1 -33.6494 2.18585 2.28675 1 1.68252e-07 
8727 1 -32.0342 1.0728 0.754503 1 3.53258e-07 
8728 1 -29.6113 1.62948 0.882048 1 1.0655e-06 
9363 1 -27.1883 2.18623 1.00962 1 3.04646e-06 
9364 1 -25.5728 0.516666 1.9032 1 6.04985e-06 
9404 1 -23.1492 1.0735 2.03071 1 1.62584e-05 
9915 1 -20.7249 1.63039 2.15824 1 4.41842e-05 
9918 1 -19.1088 0.517779 0.626745 1 8.23331e-05 
9955 1 -18.2995 2.18739 2.28577 1 0.000119458 
10383 1 -16.6825 1.07515 0.754816 1 0.000236794 
10384 1 -14.2534 1.63301 0.883217 1 0.000674342 
10766 1 -11.8196 2.19146 1.01207 1 0.00187638 
10767 1 -10.1885 0.521748 1.90375 1 0.00378289 
10807 1 -7.73699 1.07763 2.02888 1 0.0122474 
11064 1 -5.25252 1.60334 2.13507 1 0.0956679 
11067 1 -3.41127 0.453517 0.521039 5 1.8541 
11104 1 -2.8226 2.10099 2.26073 5 4.96047 
11277 1 -0.447169 1.82607 2.24007 5 5.33544 
11279 1 -0.545164 0.96821 0.0244766 5 3.72397 
11401 2 1.1657 0.00760545 1.40274 5 0.476863 
11412 2 1.9928 2.27741 2.12054 1 0.0475386 
11410 2 3.63376 0.575946 1.24845 1 0.0171444 
11423 2 6.09343 1.13141 1.1191 1 0.00529345 
11484 2 8.53518 1.6908 0.989596 1 0.00185514 
11486 2 10.1587 0.58047 2.51826 1 0.000667112 
11498 2 10.1627 0.0224514 0.0961361 1 0.000870359 
11499 2 10.9691 2.24925 0.860839 1 0.000657756 
11635 2 12.5886 1.13781 2.39088 1 0.000276505 
11638 2 15.0156 1.69504 2.2633 1 0.000107064 
11648 2 16.6324 0.0255516 1.36992 1 6.19878e-05 
11868 2 17.4409 2.25213 2.13568 1 3.96404e-05 
11866 2 19.057 0.582667 1.24216 1 2.17942e-05 
11879 2 21.4808 1.13968 1.11451 1 7.55953e-06 
2080 4 -76.4492 4.96776 1.65029 5 30.976 
2091 4 -74.8341 3.29808 2.54407 5 6.1952 
2714 4 -74.8341 3.85464 0.11808 5 6.1952 
2736 4 -72.4115 4.4112 0.245764 1 6.00008e-16 
2740 4 -70.7964 2.74152 1.13955 1 6.00005e-16 
3441 4 -69.9889 4.96776 0.373448 1 6.00008e-16 
3476 4 -68.3738 3.29808 1.26723 1 1.2176e-09 
3478 1 -65.9512 3.85463 1.39489 1 4.22262e-09 
4235 1 -63.5285 4.41119 1.5225 1 3.75693e-09 
4236 1 -61.9135 2.74151 2.41625 1 8.08697e-09 
4238 1 -61.1059 4.96777 1.65011 1 2.81069e-09 
4276 1 -59.4908 3.29808 2.54383 1 4.76538e-09 
4962 1 -59.4908 3.85468 0.11783 1 2.53645e-09 
4997 1 -57.0682 4.41124 0.245414 1 1.42298e-09 
5001 1 -55.4531 2.74155 1.13914 1 1.81892e-09 
5720 1 -54.6456 4.96781 0.373003 1 1.86004e-09 
5755 1 -53.0305 3.29812 1.26674 1 2.23894e-09 
5757 1 -50.6079 3.85471 1.39434 1 1.26091e-08 
6515 1 -48.1853 4.41134 1.52189 1 8.91875e-09 
6516 1 -46.5702 2.74175 2.41555 1 6.47207e-09 
6518 1 -45.7626 4.96803 1.64938 1 3.96911e-09 
6556 1 -44.1476 3.29845 2.54301 1 2.17152e-09 
7241 1 -44.1476 3.855 0.117024 1 1.21836e-09 
7276 1 -41.7249 4.41171 0.244489 1 4.03429e-09 
7280 1 -40.1098 2.74213 1.13812 1 1.19839e-08 
7985 1 -39.3023 4.96842 0.37194 1 1.05086e-08 
8020 1 -37.6872 3.29883 1.26556 1 4.39446e-08 
8022 1 -35.2645 3.85549 1.39307 1 1.02755e-07 
8723 1 -32.8418 4.41212 1.52062 1 2.95149e-07 
8724 1 -31.2266 2.74248 2.41428 1 4.74905e-07 
8726 1 -30.4189 4.96879 1.64816 1 8.13287e-07 
8764 1 -28.8038 3.29917 2.54179 1 1.22841e-06 
9326 1 -28.8038 3.85578 0.11596 1 1.05593e-06 
9361 1 -26.3808 4.41254 0.243543 1 3.33893e-06 
9365 1 -24.765 2.74304 1.13717 1 8.65594e-06 
9879 1 -23.9575 4.96938 0.37114 1 9.76193e-06 
9914 1 -22.3412 3.29994 1.26476 1 2.43052e-05 
9916 1 -19.9165 3.85694 1.39247 1 6.79687e-05 
10379 1 -17.4903 4.41415 1.52024 1 0.000190201 
10380 1 -15.8722 2.74458 2.41325 1 0.000311825 
10382 1 -15.0617 4.97169 1.64814 1 0.00052262 
10420 1 -13.442 3.30189 2.54062 1 0.000758534 
10729 1 -13.4474 3.85978 0.118493 1 0.000876929 
10764 1 -11.0129 4.41939 0.248505 1 0.00318167 
10768 1 -9.37851 2.75132 1.14213 1 0.00524037 
11028 1 -8.56497 4.97988 0.379117 1 0.0134045 
11063 1 -6.92155 3.30865 1.27428 1 0.0175969 
11065 1 -4.45778 3.88264 1.4213 1 0.292118 
11276 1 -1.68511 4.58214 1.53669 5 4.40353 
11402 2 0.224129 3.39183 0.511687 5 1.56874 
11413 2 2.81182 3.90792 0.48342 1 0.0772021 
11415 2 4.45993 2.8054 2.00743 1 0.0069818 
11424 2 5.28127 4.46897 0.356461 1 0.0119589 
11487 2 6.90702 3.36081 1.88137 1 0.00279746 
11488 2 7.7282 5.02867 0.226022 1 0.00306143 
11490 2 9.34578 3.91831 1.75375 1 0.00118005 
11639 2 11.778 4.47628 1.62576 1 0.000461484 
11636 2 13.3982 2.80719 0.732401 1 0.000228883 
11641 2 14.2064 5.03386 1.4978 1 0.000171956 
11649 2 15.8246 3.36465 0.60423 1 7.84395e-05 
11869 2 18.2494 3.92184 0.476284 1 2.67485e-05 
11871 2 19.8651 2.80914 2.00809 1 1.41148e-05 
11880 2 20.6732 4.47889 0.348507 1 9.06324e-06 
12186 2 22.2886 3.36611 1.88052 1 4.86269e-06 
2712 4 -75.6417 7.194 0.884183 5 18.5856 
2734 4 -74.0266 5.52432 1.77797 1 7.00002e-16 
2737 4 -71.6039 6.08088 1.90565 1 4.00002e-16 
3472 4 -69.1813 6.63744 2.03334 1 1.76282e-10 
3474 4 -67.5662 5.52432 0.501132 1 3.99755e-09 
3475 1 -66.7587 7.194 2.16102 1 1.02706e-08 
4199 1 -65.1436 6.08088 0.628769 1 3.06478e-09 
4233 1 -62.721 6.63745 0.756374 1 5.31154e-10 
4960 1 -60.2984 7.19402 0.883972 1 9.95236e-10 
4995 1 -58.6833 5.52434 1.77769 1 2.09017e-09 
4998 1 -56.2607 6.08091 1.90528 1 5.36389e-09 
5751 1 -53.8381 6.63748 2.03286 1 5.65658e-09 
5753 1 -52.223 5.52438 0.500614 1 3.54428e-09 
5754 1 -51.4154 7.19406 2.16047 1 5.94224e-09 
6479 1 -49.8003 6.08098 0.628196 1 7.76712e-09 
6513 1 -47.3777 6.63762 0.755726 1 8.51188e-09 
7239 1 -44.9551 7.19432 0.883205 1 1.34525e-09 
7274 1 -43.34 5.52474 1.77683 1 3.23382e-09 
7277 1 -40.9174 6.08145 1.9043 1 8.93076e-09 
8016 1 -38.4947 6.63815 2.03173 1 2.57566e-08 
8018 1 -36.8796 5.52511 0.499394 1 4.49636e-08 
8019 1 -36.0721 7.19481 2.15921 1 7.28183e-08 
8687 1 -34.457 6.08176 0.62693 1 1.19004e-07 
8721 1 -32.0342 6.63841 0.754503 1 3.54305e-07 
9324 1 -29.6113 7.19509 0.882048 1 1.06138e-06 
9359 1 -27.996 5.52551 1.7757 1 2.21074e-06 
9362 1 -25.5728 6.08227 1.9032 1 6.03411e-06 
9910 1 -23.1492 6.63911 2.03071 1 1.62281e-05 
9912 1 -21.5336 5.52632 0.498865 1 2.84736e-05 
9913 1 -20.7249 7.196 2.15824 1 4.41451e-05 
10343 1 -19.1088 6.08339 0.626745 1 8.23121e-05 
10377 1 -16.6825 6.64075 0.754816 1 0.000236817 
10727 1 -14.2534 7.19862 0.883215 1 0.000674436 
10762 1 -12.6289 5.52971 1.77614 1 0.00141082 
10765 1 -10.1885 6.08736 1.90375 1 0.00378359 
11059 1 -7.73698 6.64324 2.02888 1 0.0122481 
11061 1 -6.08973 5.54327 0.504264 1 0.126 
11062 1 -5.25252 7.16894 2.13506 1 0.0956695 
11240 1 -3.41128 6.01912 0.521041 5 1.85407 
11272 1 -2.82259 7.6666 2.26073 5 4.96046 
11274 1 -0.545162 6.53382 0.0244766 5 3.724 
11275 1 -0.447167 7.39168 2.24007 5 5.33547 
11416 2 1.1657 5.57322 1.40274 5 0.476864 
11418 2 3.63376 6.14156 1.24845 1 0.0171442 
11491 2 6.09343 6.69702 1.1191 1 0.00529325 
11493 2 8.53519 7.2564 0.989596 1 0.00185514 
11500 2 10.1627 5.58806 0.0961342 1 0.000870254 
11612 2 10.1587 6.14608 2.51826 1 0.000666964 
11640 2 12.5886 6.70342 2.39088 1 0.000276621 
11846 2 15.0156 7.26065 2.2633 1 0.00010706 
11872 2 16.6324 5.59116 1.36992 1 6.20312e-05 
11874 2 19.057 6.14828 1.24216 1 2.18158e-05 
12190 2 21.4808 6.70529 1.11451 1 7.5554e-06 
2713 4 -74.8341 9.42025 0.11808 5 6.1952 
2730 4 -74.8341 8.86369 2.54407 5 6.1952 
2732 4 -73.219 7.75056 1.01187 1 1.00001e-15 
3438 4 -72.4115 9.97681 0.245764 1 3.96818e-16 
3439 4 -70.7964 8.30712 1.13955 1 8.00807e-16 
3470 4 -68.3738 8.86369 1.26723 1 1.20695e-09 
4197 1 -65.9512 9.42024 1.39489 1 4.34304e-09 
4231 1 -64.3361 7.75055 2.28862 1 5.85875e-09 
4229 1 -63.5285 9.9768 1.5225 1 3.78153e-09 
4234 1 -61.9135 8.30712 2.41625 1 7.87033e-09 
4961 1 -59.4908 9.42029 0.117829 1 2.40991e-09 
4991 1 -59.4908 8.86369 2.54383 1 4.68804e-09 
4993 1 -57.8757 7.7506 1.01155 1 9.17972e-10 
5717 1 -57.0682 9.97685 0.245413 1 1.29906e-09 
5718 1 -55.4531 8.30716 1.13914 1 1.93323e-09 
5749 1 -53.0305 8.86373 1.26674 1 2.06969e-09 
6477 1 -50.6079 9.42032 1.39434 1 1.2292e-08 
6511 1 -48.9928 7.75068 2.28803 1 7.67029e-09 
6509 1 -48.1853 9.97695 1.52189 1 9.44078e-09 
6514 1 -46.5702 8.30735 2.41555 1 6.42576e-09 
7240 1 -44.1476 9.42061 0.117024 1 1.39877e-09 
7270 1 -44.1476 8.86406 2.54301 1 2.20264e-09 
7272 1 -42.5325 7.75103 1.01066 1 3.47856e-09 
7982 1 -41.7249 9.97732 0.244489 1 4.47793e-09 
7983 1 -40.1098 8.30773 1.13811 1 1.22749e-08 
8014 1 -37.6872 8.86443 1.26555 1 4.39067e-08 
8685 1 -35.2645 9.4211 1.39307 1 1.02683e-07 
8719 1 -33.6494 7.75146 2.28675 1 1.6779e-07 
8717 1 -32.8418 9.97773 1.52062 1 2.94211e-07 
8722 1 -31.2266 8.30809 2.41428 1 4.73741e-07 
9325 1 -28.8038 9.42139 0.115959 1 1.05718e-06 
9355 1 -28.8038 8.86478 2.54179 1 1.2272e-06 
9357 1 -27.1883 7.75184 1.00962 1 3.04249e-06 
9876 1 -26.3808 9.97815 0.243544 1 3.32876e-06 
9877 1 -24.765 8.30865 1.13717 1 8.6364e-06 
9908 1 -22.3412 8.86554 1.26476 1 2.42883e-05 
10341 1 -19.9165 9.42255 1.39247 1 6.79674e-05 
10375 1 -18.2995 7.753 2.28577 1 0.000119435 
10373 1 -17.4903 9.97975 1.52024 1 0.000190147 
10378 1 -15.8722 8.31019 2.41325 1 0.000311772 
10728 1 -13.4474 9.42539 0.118491 1 0.000876916 
10758 1 -13.442 8.8675 2.54061 1 0.000758605 
10760 1 -11.8196 7.75707 1.01207 1 0.00187642 
11025 1 -11.0129 9.985 0.248504 1 0.00318196 
11026 1 -9.37851 8.31693 1.14213 1 0.00524055 
11057 1 -6.92155 8.87426 1.27427 1 0.0175972 
11238 1 -4.45778 9.44824 1.42129 1 0.292119 
11270 1 -1.68511 10.1477 1.53669 5 4.40352 
11417 2 1.9928 7.84302 2.12054 1 0.0475372 
11419 2 0.22413 8.95744 0.511686 5 1.56874 
11421 2 2.81182 9.47353 0.483419 1 0.0772026 
11465 2 4.45993 8.37101 2.00743 1 0.0069815 
11492 2 6.90702 8.92642 1.88137 1 0.002797 
11494 2 5.28127 10.0346 0.35646 1 0.0119584 
11616 2 9.34578 9.48392 1.75375 1 0.00118009 
11642 2 10.9691 7.81486 0.860838 1 0.000657715 
11643 2 11.778 10.0419 1.62576 1 0.000461471 
11644 2 13.3982 8.37279 0.7324 1 0.000228793 
11873 2 17.4409 7.81774 2.13568 1 3.96318e-05 
11875 2 15.8246 8.93026 0.604229 1 7.84364e-05 
11877 2 18.2494 9.48745 0.476283 1 2.67421e-05 
12164 2 19.8651 8.37475 2.00808 1 1.41595e-05 
12191 2 22.2886 8.93172 1.88052 1 4.87811e-06 
12193 2 20.6732 10.0445 0.348508 1 9.08939e-06 
2710 4 -76.4492 10.5334 1.65029 5 30.976 
2711 4 -75.6417 12.7596 0.884183 5 18.5856 
2728 4 -74.0266 11.0899 1.77797 1 9.96809e-16 
3436 4 -71.6039 11.6465 1.90565 1 6.98407e-16 
3440 4 -69.9889 10.5334 0.373448 1 6.04818e-16 
3466 4 -69.1813 12.2031 2.03334 1 2.01622e-10 
4194 1 -66.7587 12.7596 2.16102 1 1.06742e-08 
4196 4 -67.5662 11.0899 0.501132 1 3.95494e-09 
4198 1 -65.1436 11.6465 0.628769 1 3.03115e-09 
4956 1 -62.721 12.2031 0.756374 1 5.34047e-10 
4957 1 -61.1059 10.5334 1.65011 1 2.9656e-09 
4958 1 -60.2984 12.7596 0.883972 1 1.11883e-09 
4989 1 -58.6833 11.09 1.77769 1 2.06133e-09 
5715 1 -56.2607 11.6465 1.90528 1 4.8919e-09 
5719 1 -54.6456 10.5334 0.373003 1 1.85538e-09 
5745 1 -53.8381 12.2031 2.03286 1 5.06875e-09 
6474 1 -51.4154 12.7597 2.16047 1 5.71041e-09 
6476 1 -52.223 11.09 0.500614 1 3.3496e-09 
6478 1 -49.8003 11.6466 0.628196 1 8.20001e-09 
7235 1 -47.3777 12.2032 0.755727 1 8.27683e-09 
7236 1 -45.7626 10.5336 1.64938 1 4.04978e-09 
7237 1 -44.9551 12.7599 0.883204 1 1.20559e-09 
7268 1 -43.34 11.0904 1.77683 1 3.14945e-09 
7980 1 -40.9174 11.6471 1.9043 1 8.18889e-09 
7984 1 -39.3023 10.534 0.37194 1 1.07565e-08 
8010 1 -38.4947 12.2038 2.03173 1 2.42647e-08 
8682 1 -36.0721 12.7604 2.15921 1 7.44029e-08 
8684 1 -36.8796 11.0907 0.499395 1 4.47298e-08 
8686 1 -34.457 11.6474 0.62693 1 1.19469e-07 
9320 1 -32.0342 12.204 0.754503 1 3.5188e-07 
9321 1 -30.4189 10.5344 1.64816 1 8.10676e-07 
9322 1 -29.6113 12.7607 0.882047 1 1.06064e-06 
9353 1 -27.996 11.0911 1.7757 1 2.20705e-06 
9874 1 -25.5728 11.6479 1.9032 1 6.018e-06 
9878 1 -23.9575 10.535 0.37114 1 9.75463e-06 
9904 1 -23.1492 12.2047 2.03071 1 1.62221e-05 
10338 1 -20.7249 12.7616 2.15824 1 4.41353e-05 
10340 1 -21.5336 11.0919 0.498866 1 2.84439e-05 
10342 1 -19.1088 11.649 0.626745 1 8.22643e-05 
10723 1 -16.6825 12.2064 0.754816 1 0.00023684 
10724 1 -15.0617 10.5373 1.64814 1 0.000522506 
10725 1 -14.2534 12.7642 0.883215 1 0.000674404 
10756 1 -12.6289 11.0953 1.77614 1 0.00141068 
11023 1 -10.1885 11.653 1.90375 1 0.00378303 
11027 1 -8.56497 10.5455 0.379118 1 0.0134056 
11053 1 -7.73698 12.2088 2.02888 1 0.0122473 
11235 1 -5.25252 12.7346 2.13506 1 0.0956674 
11237 1 -6.08973 11.1089 0.504264 1 0.126003 
11239 1 -3.41127 11.5847 0.521039 5 1.85411 
11367 1 -0.545167 12.0994 0.0244688 5 3.72391 
11420 2 1.1657 11.1388 1.40274 5 0.476867 
11469 2 3.63376 11.7072 1.24845 1 0.0171444 
11495 2 6.09343 12.2626 1.1191 1 0.00529355 
11496 2 7.7282 10.5943 0.22602 1 0.00306116 
11620 2 8.53518 12.822 0.989597 1 0.00185555 
11622 2 10.1587 11.7117 2.51826 1 0.00066688 
11645 2 10.1627 11.1537 0.0961345 1 0.000870628 
11853 2 12.5886 12.269 2.39088 1 0.00027648 
11850 2 14.2064 10.5995 1.4978 1 0.000171873 
11856 2 15.0156 12.8263 2.2633 1 0.000107055 
11876 2 16.6324 11.1568 1.36992 1 6.20636e-05 
12168 2 19.057 11.7139 1.24216 1 2.18577e-05 
12194 2 21.4808 12.2709 1.11451 1 7.57458e-06 
2724 4 -74.8341 14.4293 2.54407 5 6.1952 
3413 4 -74.8341 14.9859 0.11808 5 6.1952 
3435 4 -73.219 13.3162 1.01187 1 1.00001e-15 
3437 4 -70.7964 13.8727 1.13955 1 1.00001e-15 
4193 4 -68.3738 14.4293 1.26723 1 1.24884e-09 
4195 1 -65.9512 14.9858 1.39489 1 4.35332e-09 
4225 1 -64.3361 13.3162 2.28862 1 5.64177e-09 
4953 1 -61.9135 13.8727 2.41625 1 8.05846e-09 
4985 1 -59.4908 14.4293 2.54383 1 4.99558e-09 
5691 1 -59.4908 14.9859 0.117829 1 2.75574e-09 
5714 1 -57.8757 13.3162 1.01155 1 9.66151e-10 
5716 1 -55.4531 13.8728 1.13914 1 1.69979e-09 
6473 1 -53.0305 14.4293 1.26674 1 1.99597e-09 
6475 1 -50.6079 14.9859 1.39434 1 1.22858e-08 
6505 1 -48.9928 13.3163 2.28803 1 7.99374e-09 
7232 1 -46.5702 13.873 2.41555 1 6.3756e-09 
7264 1 -44.1476 14.4297 2.54302 1 2.06985e-09 
7956 1 -44.1476 14.9862 0.117025 1 1.25953e-09 
7979 1 -42.5325 13.3166 1.01066 1 3.13662e-09 
7981 1 -40.1098 13.8733 1.13811 1 1.09583e-08 
8681 1 -37.6872 14.43 1.26556 1 4.28837e-08 
8683 1 -35.2645 14.9867 1.39307 1 1.04334e-07 
8713 1 -33.6494 13.3171 2.28675 1 1.70379e-07 
9317 1 -31.2266 13.8737 2.41428 1 4.7523e-07 
9349 1 -28.8038 14.4304 2.54179 1 1.22712e-06 
9850 1 -28.8038 14.987 0.11596 1 1.0581e-06 
9873 1 -27.1883 13.3174 1.00962 1 3.03843e-06 
9875 1 -24.765 13.8743 1.13717 1 8.63221e-06 
10337 1 -22.3412 14.4312 1.26476 1 2.42629e-05 
10339 1 -19.9165 14.9882 1.39247 1 6.79614e-05 
10369 1 -18.2995 13.3186 2.28577 1 0.000119361 
10720 1 -15.8722 13.8758 2.41325 1 0.000311721 
10752 1 -13.442 14.4331 2.54061 1 0.000758499 
10999 1 -13.4474 14.991 0.118492 1 0.000877109 
11022 1 -11.8196 13.3227 1.01207 1 0.00187638 
11024 1 -9.37851 13.8825 1.14213 1 0.00524079 
11234 1 -6.92155 14.4399 1.27428 1 0.017597 
11236 1 -4.45778 15.0139 1.42129 1 0.29211 
11266 1 -2.82259 13.2322 2.26073 5 4.96045 
11365 1 -0.447167 12.9573 2.24007 5 5.33543 
11422 2 0.224129 14.5231 0.511686 5 1.56872 
11472 2 1.9928 13.4086 2.12054 1 0.0475391 
11473 2 2.81182 15.0391 0.48342 1 0.0772022 
11475 2 4.45993 13.9366 2.00743 1 0.00698162 
11623 2 6.90702 14.492 1.88137 1 0.00279742 
11626 2 9.34578 15.0495 1.75375 1 0.00118025 
11646 2 10.9691 13.3805 0.860838 1 0.000657814 
11854 2 13.3982 13.9384 0.732402 1 0.000228928 
11878 2 15.8246 14.4959 0.604229 1 7.84446e-05 
12171 2 17.4409 13.3833 2.13568 1 3.96402e-05 
12172 2 18.2494 15.0531 0.476284 1 2.67512e-05 
12174 2 19.8651 13.9404 2.00809 1 1.41402e-05 
12575 2 22.2886 14.4973 1.88052 1 4.8849e-06 
2709 4 -76.4492 16.099 1.65029 5 30.976 
3431 4 -74.0266 16.6555 1.77797 1 1e-15 
3433 4 -72.4115 15.5424 0.245764 1 2.00008e-16 
3434 4 -71.6039 17.2121 1.90565 1 1e-15 
4171 4 -69.9889 16.099 0.373448 1 4.00008e-16 
4189 4 -69.1813 17.7687 2.03334 1 2.25954e-10 
4191 4 -67.5662 16.6555 0.501132 1 4.03011e-09 
4929 1 -65.1436 17.2121 0.628769 1 3.13627e-09 
4950 1 -62.721 17.7687 0.756374 1 5.47388e-10 
4952 1 -63.5285 15.5424 1.5225 1 3.76988e-09 
4955 1 -61.1059 16.099 1.65011 1 2.84467e-09 
5710 1 -58.6833 16.6556 1.77769 1 2.03272e-09 
5712 1 -57.0682 15.5425 0.245414 1 1.3104e-09 
5713 1 -56.2607 17.2121 1.90528 1 5.26574e-09 
6451 1 -54.6456 16.099 0.373003 1 1.84621e-09 
6469 1 -53.8381 17.7687 2.03286 1 5.27387e-09 
6471 1 -52.223 16.6556 0.500614 1 3.39427e-09 
7208 1 -49.8003 17.2122 0.628197 1 8.12793e-09 
7229 1 -47.3777 17.7688 0.755727 1 8.2016e-09 
7231 1 -48.1853 15.5426 1.52189 1 9.06135e-09 
7234 1 -45.7626 16.0992 1.64938 1 3.98055e-09 
7975 1 -43.34 16.656 1.77683 1 3.47711e-09 
7977 1 -41.7249 15.5429 0.24449 1 4.11904e-09 
7978 1 -40.9174 17.2127 1.9043 1 8.50972e-09 
8659 1 -39.3023 16.0996 0.371939 1 1.02614e-08 
8677 1 -38.4947 17.7694 2.03173 1 2.42365e-08 
8679 1 -36.8796 16.6563 0.499394 1 4.48209e-08 
9293 1 -34.457 17.213 0.62693 1 1.17406e-07 
9314 1 -32.0342 17.7696 0.754503 1 3.48623e-07 
9316 1 -32.8418 15.5433 1.52062 1 2.98084e-07 
9319 1 -30.4189 16.1 1.64816 1 8.1537e-07 
9869 1 -27.996 16.6567 1.7757 1 2.21374e-06 
9871 1 -26.3808 15.5438 0.243543 1 3.32743e-06 
9872 1 -25.5728 17.2135 1.9032 1 6.02374e-06 
10315 1 -23.9575 16.1006 0.371139 1 9.76115e-06 
10333 1 -23.1492 17.7703 2.03071 1 1.61911e-05 
10335 1 -21.5336 16.6575 0.498866 1 2.84615e-05 
10696 1 -19.1088 17.2146 0.626746 1 8.22631e-05 
10717 1 -16.6825 17.772 0.754817 1 0.000236717 
10719 1 -17.4903 15.5454 1.52024 1 0.000190179 
10722 1 -15.0617 16.1029 1.64814 1 0.000522554 
11018 1 -12.6289 16.6609 1.77614 1 0.00141073 
11020 1 -11.0129 15.5506 0.248505 1 0.00318235 
11021 1 -10.1885 17.2186 1.90375 1 0.00378315 
11212 1 -8.56497 16.1111 0.379118 1 0.0134064 
11230 1 -7.73698 17.7745 2.02888 1 0.0122475 
11232 1 -6.08973 16.6745 0.504265 1 0.126002 
11341 1 -3.41128 17.1503 0.521041 5 1.85406 
11362 1 -0.545162 17.665 0.0244761 5 3.72398 
11364 1 -1.68512 15.7134 1.53669 5 4.40352 
11476 2 1.1657 16.7044 1.40274 5 0.47687 
11478 2 3.63377 17.2728 1.24845 1 0.0171436 
11497 2 5.28127 15.6002 0.35646 1 0.0119577 
11627 2 6.09344 17.8282 1.1191 1 0.00529305 
11624 2 7.7282 16.1599 0.226021 1 0.00306081 
11647 2 10.1627 16.7193 0.0961371 1 0.000870401 
11819 2 10.1587 17.2773 2.51826 1 0.000667044 
11857 2 11.778 15.6075 1.62576 1 0.000461573 
11858 2 12.5886 17.8346 2.39088 1 0.000276549 
11859 2 14.2064 16.1651 1.4978 1 0.000171881 
12175 2 16.6324 16.7224 1.36992 1 6.20154e-05 
12177 2 19.057 17.2795 1.24216 1 2.18447e-05 
12196 2 20.6732 15.6101 0.348508 1 9.08117e-06 
12579 2 21.4808 17.8365 1.11451 1 7.57162e-06 
3411 4 -75.6417 18.3252 0.884183 5 18.5856 
3427 4 -74.8341 19.9949 2.54407 5 6.1952 
3429 4 -73.219 18.8818 1.01187 1 7.00005e-16 
4169 4 -70.7964 19.4383 1.13955 1 1e-15 
4187 4 -68.3738 19.9949 1.26723 1 1.27592e-09 
4192 1 -66.7587 18.3252 2.16102 1 1.05006e-08 
4948 1 -64.3361 18.8818 2.28862 1 5.56439e-09 
4951 1 -61.9135 19.4383 2.41625 1 8.1421e-09 
5689 1 -60.2983 18.3252 0.883972 1 1.16108e-09 
5706 1 -59.4908 19.9949 2.54383 1 4.64085e-09 
5708 1 -57.8757 18.8818 1.01155 1 9.42811e-10 
6449 1 -55.4531 19.4384 1.13914 1 1.73141e-09 
6467 1 -53.0305 19.9949 1.26674 1 2.05741e-09 
6472 1 -51.4154 18.3253 2.16047 1 5.96966e-09 
7227 1 -48.9928 18.8819 2.28803 1 7.91208e-09 
7230 1 -46.5702 19.4386 2.41555 1 6.19032e-09 
7954 1 -44.9551 18.3255 0.883204 1 1.27122e-09 
7971 1 -44.1476 19.9953 2.54301 1 2.04563e-09 
7973 1 -42.5325 18.8823 1.01066 1 3.4658e-09 
8657 1 -40.1098 19.439 1.13811 1 1.2058e-08 
8675 1 -37.6872 19.9957 1.26555 1 4.40293e-08 
8680 1 -36.0721 18.326 2.15921 1 7.2366e-08 
9312 1 -33.6494 18.8827 2.28675 1 1.69379e-07 
9315 1 -31.2266 19.4393 2.41428 1 4.76291e-07 
9848 1 -29.6113 18.3263 0.882048 1 1.05678e-06 
9865 1 -28.8038 19.996 2.54179 1 1.22753e-06 
9867 1 -27.1883 18.8831 1.00962 1 3.03975e-06 
10313 1 -24.765 19.4399 1.13717 1 8.6311e-06 
10331 1 -22.3412 19.9968 1.26476 1 2.42349e-05 
10336 1 -20.7249 18.3272 2.15824 1 4.41248e-05 
10715 1 -18.2995 18.8842 2.28577 1 0.000119418 
10718 1 -15.8722 19.4414 2.41325 1 0.000311773 
10997 1 -14.2534 18.3298 0.883217 1 0.000674432 
11014 1 -13.442 19.9987 2.54062 1 0.000758582 
11016 1 -11.8196 18.8883 1.01207 1 0.00187627 
11210 1 -9.37851 19.4481 1.14213 1 0.00524049 
11228 1 -6.92155 20.0055 1.27427 1 0.0175976 
11233 1 -5.25252 18.3002 2.13506 1 0.0956687 
11360 1 -2.82259 18.7978 2.26073 5 4.96047 
11363 1 -0.447165 18.5229 2.24007 5 5.33547 
11477 2 1.9928 18.9742 2.12054 1 0.0475373 
11479 2 0.22413 20.0887 0.511687 5 1.56874 
11590 2 4.45993 19.5022 2.00743 1 0.0069813 
11628 2 6.90702 20.0576 1.88137 1 0.00279739 
11629 2 8.53519 18.3876 0.989598 1 0.00185536 
11860 2 10.9691 18.9461 0.86084 1 0.000657779 
11862 2 13.3982 19.504 0.732401 1 0.000228868 
12138 2 15.0156 18.3919 2.2633 1 0.000107044 
12176 2 17.4409 18.949 2.13568 1 3.96742e-05 
12178 2 15.8246 20.0615 0.604229 1 7.8438e-05 
12542 2 19.8651 19.506 2.00809 1 1.41512e-05 
12580 2 22.2886 20.0629 1.88052 1 4.87865e-06 
3409 4 -76.4492 21.6646 1.65029 5 30.976 
3412 4 -74.8341 20.5515 0.11808 5 6.1952 
3425 4 -74.0266 22.2211 1.77797 1 8.00002e-16 
4166 4 -71.6039 22.7777 1.90565 1 1e-15 
4168 4 -72.4115 21.108 0.245764 1 2.00008e-16 
4170 4 -69.9889 21.6646 0.373448 1 2.00008e-16 
4926 4 -67.5662 22.2211 0.501132 1 4.01241e-09 
4927 1 -65.9512 20.5515 1.39489 1 4.22013e-09 
4928 1 -65.1436 22.7777 0.628769 1 3.2778e-09 
4946 1 -63.5285 21.108 1.5225 1 3.99392e-09 
5686 1 -61.1059 21.6646 1.65011 1 2.77889e-09 
5690 1 -59.4908 20.5515 0.117829 1 2.55025e-09 
5704 1 -58.6833 22.2212 1.77769 1 2.14496e-09 
6446 1 -56.2607 22.7777 1.90528 1 5.1695e-09 
6448 1 -57.0682 21.1081 0.245413 1 1.26546e-09 
6450 1 -54.6456 21.6646 0.373003 1 1.96302e-09 
7205 1 -52.223 22.2212 0.500615 1 3.55123e-09 
7206 1 -50.6079 20.5515 1.39434 1 1.27025e-08 
7207 1 -49.8003 22.7778 0.628196 1 7.85551e-09 
7225 1 -48.1853 21.1082 1.52189 1 9.35827e-09 
7951 1 -45.7626 21.6649 1.64938 1 3.68118e-09 
7955 1 -44.1476 20.5518 0.117024 1 1.45934e-09 
7969 1 -43.34 22.2216 1.77683 1 3.01679e-09 
8654 1 -40.9174 22.7783 1.9043 1 8.49388e-09 
8656 1 -41.7249 21.1085 0.244489 1 4.56615e-09 
8658 1 -39.3023 21.6652 0.37194 1 1.07831e-08 
9290 1 -36.8796 22.2219 0.499394 1 4.45147e-08 
9291 1 -35.2645 20.5523 1.39307 1 1.02791e-07 
9292 1 -34.457 22.7786 0.62693 1 1.172e-07 
9310 1 -32.8418 21.1089 1.52062 1 2.9647e-07 
9845 1 -30.4189 21.6656 1.64816 1 8.1555e-07 
9849 1 -28.8038 20.5526 0.11596 1 1.05523e-06 
9863 1 -27.996 22.2223 1.7757 1 2.21926e-06 
10310 1 -25.5728 22.7791 1.9032 1 6.02988e-06 
10312 1 -26.3808 21.1094 0.243543 1 3.3294e-06 
10314 1 -23.9575 21.6662 0.37114 1 9.75892e-06 
10693 1 -21.5336 22.2231 0.498867 1 2.84573e-05 
10694 1 -19.9165 20.5538 1.39247 1 6.79408e-05 
10695 1 -19.1088 22.7802 0.626745 1 8.22564e-05 
10713 1 -17.4903 21.111 1.52024 1 0.000190171 
10994 1 -15.0617 21.6685 1.64814 1 0.000522509 
10998 1 -13.4474 20.5566 0.118492 1 0.000876947 
11012 1 -12.6289 22.2265 1.77614 1 0.0014106 
11207 1 -10.1885 22.7842 1.90375 1 0.00378302 
11209 1 -11.0129 21.1162 0.248504 1 0.00318202 
11211 1 -8.56497 21.6767 0.379118 1 0.0134057 
11338 1 -6.08973 22.2401 0.504263 1 0.126003 
11339 1 -4.45778 20.5795 1.4213 1 0.29212 
11340 1 -3.41127 22.716 0.521041 5 1.85409 
11358 1 -1.68511 21.279 1.53669 5 4.4035 
11480 2 1.1657 22.27 1.40274 5 0.476871 
11481 2 2.81182 20.6047 0.483421 1 0.077202 
11594 2 3.63376 22.8384 1.24845 1 0.0171443 
11630 2 5.28127 21.1658 0.35646 1 0.0119584 
11632 2 7.7282 21.7255 0.226022 1 0.0030611 
11823 2 9.34578 20.6151 1.75375 1 0.00118008 
11829 2 10.1587 22.8429 2.51826 1 0.000667094 
11863 2 10.1627 22.2849 0.0961363 1 0.000870339 
11861 2 11.778 21.1731 1.62576 1 0.000461294 
12142 2 14.2064 21.7307 1.4978 1 0.000171838 
12179 2 16.6324 22.288 1.36992 1 6.20267e-05 
12180 2 18.2494 20.6187 0.476284 1 2.67494e-05 
12546 2 19.057 22.8451 1.24216 1 2.1829e-05 
12582 2 20.6732 21.1757 0.348507 1 9.07993e-06 
3410 4 -75.6417 23.8908 0.884183 5 18.5856 
3421 4 -74.8341 25.5605 2.54407 5 6.1952 
4165 4 -73.219 24.4474 1.01187 1 4.00005e-16 
4167 4 -70.7964 25.004 1.13955 1 7.00005e-16 
4183 4 -69.1813 23.3343 2.03334 1 2.10675e-10 
4923 4 -68.3738 25.5605 1.26723 1 1.27389e-09 
4924 1 -66.7587 23.8908 2.16102 1 1.04144e-08 
4942 1 -64.3361 24.4474 2.28862 1 5.69257e-09 
5682 1 -61.9135 25.0039 2.41625 1 7.69663e-09 
5685 1 -62.721 23.3343 0.756373 1 5.21347e-10 
5687 1 -60.2984 23.8909 0.883972 1 1.03614e-09 
5700 1 -59.4908 25.5605 2.54383 1 4.84868e-09 
6445 1 -57.8757 24.4474 1.01155 1 9.26282e-10 
6447 1 -55.4531 25.004 1.13914 1 1.76278e-09 
6463 1 -53.8381 23.3343 2.03286 1 5.20871e-09 
7202 1 -53.0305 25.5606 1.26674 1 2.02512e-09 
7203 1 -51.4154 23.8909 2.16047 1 6.11197e-09 
7221 1 -48.9928 24.4475 2.28803 1 7.48614e-09 
7947 1 -46.5702 25.0042 2.41555 1 6.15815e-09 
7950 1 -47.3777 23.3344 0.755726 1 8.3088e-09 
7952 1 -44.9551 23.8911 0.883203 1 1.17218e-09 
7965 1 -44.1476 25.5609 2.54301 1 1.94791e-09 
8653 1 -42.5325 24.4479 1.01066 1 3.37697e-09 
8655 1 -40.1098 25.0046 1.13812 1 1.15458e-08 
8671 1 -38.4947 23.335 2.03173 1 2.45815e-08 
9287 1 -37.6872 25.5613 1.26556 1 4.29059e-08 
9288 1 -36.0721 23.8916 2.15921 1 7.26023e-08 
9306 1 -33.6494 24.4483 2.28675 1 1.7015e-07 
9841 1 -31.2266 25.0049 2.41428 1 4.78258e-07 
9844 1 -32.0342 23.3352 0.754503 1 3.49858e-07 
9846 1 -29.6113 23.8919 0.882048 1 1.06077e-06 
9859 1 -28.8038 25.5616 2.54179 1 1.22945e-06 
10309 1 -27.1883 24.4487 1.00962 1 3.03693e-06 
10311 1 -24.765 25.0055 1.13717 1 8.63681e-06 
10327 1 -23.1492 23.3359 2.03071 1 1.62259e-05 
10690 1 -22.3412 25.5624 1.26476 1 2.42832e-05 
10691 1 -20.7249 23.8928 2.15824 1 4.41937e-05 
10709 1 -18.2995 24.4498 2.28577 1 0.000119479 
10990 1 -15.8722 25.007 2.41325 1 0.000311733 
10993 1 -16.6825 23.3376 0.754817 1 0.000236734 
10995 1 -14.2534 23.8954 0.883216 1 0.000674453 
11008 1 -13.442 25.5643 2.54062 1 0.000758394 
11206 1 -11.8196 24.4539 1.01207 1 0.00187637 
11208 1 -9.37851 25.0138 1.14213 1 0.00524046 
11224 1 -7.73698 23.3401 2.02888 1 0.0122469 
11335 1 -6.92155 25.5711 1.27427 1 0.0175975 
11336 1 -5.25252 23.8658 2.13506 1 0.0956691 
11354 1 -2.8226 24.3634 2.26073 5 4.96046 
11395 1 -0.447169 24.0885 2.24007 5 5.33546 
11397 1 -0.545163 23.2306 0.0244793 5 3.72402 
11482 2 0.22413 25.6543 0.511688 5 1.56874 
11597 2 1.9928 24.5398 2.12054 1 0.0475379 
11600 2 4.45993 25.0678 2.00743 1 0.00698163 
11631 2 6.09343 23.3938 1.1191 1 0.00529304 
11830 2 6.90702 25.6232 1.88137 1 0.00279759 
11827 2 8.53518 23.9532 0.989598 1 0.00185526 
11864 2 10.9691 24.5117 0.860839 1 0.000657649 
12145 2 12.5886 23.4002 2.39088 1 0.000276511 
12146 2 13.3982 25.0696 0.732401 1 0.000228813 
12148 2 15.0156 23.9575 2.2633 1 0.000107041 
12181 2 15.8246 25.6271 0.60423 1 7.83609e-05 
12549 2 17.4409 24.5146 2.13568 1 3.96647e-05 
12552 2 19.8651 25.0716 2.00809 1 1.41536e-05 
12583 2 21.4808 23.4021 1.1145 1 7.55935e-06 
13036 2 22.2886 25.6285 1.88052 1 4.89046e-06 
3408 4 -76.4492 27.2302 1.65029 5 30.976 
4155 4 -74.8341 26.1171 0.11808 5 6.1952 
4161 4 -74.0266 27.7868 1.77797 1 6.00003e-16 
4163 4 -72.4115 26.6736 0.245764 1 4.00008e-16 
4914 4 -69.9889 27.2302 0.373448 1 2.00008e-16 
4921 4 -67.5662 27.7868 0.501132 1 4.08413e-09 
4925 1 -65.9512 26.1171 1.39489 1 4.30623e-09 
5681 1 -63.5285 26.6736 1.5225 1 3.85788e-09 
5684 1 -61.1059 27.2302 1.65011 1 2.99176e-09 
6435 1 -59.4908 26.1171 0.117829 1 2.77608e-09 
6441 1 -58.6833 27.7868 1.77769 1 2.01892e-09 
6443 1 -57.0682 26.6737 0.245414 1 1.13854e-09 
7193 1 -54.6456 27.2302 0.373004 1 1.86128e-09 
7200 1 -52.223 27.7868 0.500615 1 3.61616e-09 
7204 1 -50.6079 26.1171 1.39434 1 1.22974e-08 
7946 1 -48.1853 26.6738 1.52188 1 8.67558e-09 
7949 1 -45.7626 27.2305 1.64938 1 4.00699e-09 
8643 1 -44.1476 26.1174 0.117024 1 1.29637e-09 
8649 1 -43.34 27.7872 1.77683 1 3.09888e-09 
8651 1 -41.7249 26.6741 0.244489 1 4.45465e-09 
9278 1 -39.3023 27.2309 0.37194 1 1.06127e-08 
9285 1 -36.8796 27.7875 0.499394 1 4.38461e-08 
9289 1 -35.2645 26.1179 1.39307 1 1.03251e-07 
9840 1 -32.8418 26.6746 1.52062 1 2.97582e-07 
9843 1 -30.4189 27.2312 1.64816 1 8.1567e-07 
10299 1 -28.8038 26.1182 0.11596 1 1.05391e-06 
10305 1 -27.996 27.7879 1.7757 1 2.21562e-06 
10307 1 -26.3808 26.675 0.243542 1 3.32876e-06 
10681 1 -23.9575 27.2318 0.371139 1 9.76339e-06 
10688 1 -21.5336 27.7888 0.498865 1 2.84725e-05 
10692 1 -19.9165 26.1194 1.39247 1 6.79683e-05 
10989 1 -17.4903 26.6766 1.52024 1 0.00019021 
10992 1 -15.0617 27.2341 1.64814 1 0.000522564 
11196 1 -13.4474 26.1222 0.118492 1 0.000877079 
11202 1 -12.6289 27.7921 1.77614 1 0.00141089 
11204 1 -11.0129 26.6818 0.248504 1 0.00318199 
11326 1 -8.56497 27.2423 0.379118 1 0.0134059 
11333 1 -6.08973 27.8057 0.504264 1 0.126004 
11337 1 -4.45778 26.1451 1.42129 1 0.292121 
11394 1 -1.68511 26.8446 1.53669 5 4.40352 
11601 2 1.1657 27.8356 1.40274 5 0.476867 
11598 2 2.81182 26.1704 0.48342 1 0.0772033 
11633 2 5.28127 26.7314 0.356461 1 0.0119587 
11831 2 7.7282 27.2911 0.226022 1 0.00306125 