ITEM: TIMESTEP
0
ITEM: NUMBER OF ATOMS
22440
ITEM: BOX BOUNDS ss pp pp
-61.9179 124.238
0 37.3352
0 35.2
ITEM: ATOMS id type x y z c_cna c_csd 
39 4 -61.42 2.4693 1.32655 5 18.5856 
328 4 -59.4288 0.975887 1.32655 1 6.00562e-16 
758 4 -55.9442 1.47369 1.32655 1 9.96016e-17 
1178 4 -52.4596 1.97149 1.32655 1 6.84373e-09 
1200 1 -50.4684 0.478052 1.32657 1 2.59029e-09 
1598 1 -48.9749 2.46924 1.3266 1 6.12098e-09 
1620 1 -46.9837 0.975822 1.32661 1 2.87615e-09 
2059 1 -43.4991 1.47361 1.32664 1 3.63639e-09 
2489 1 -40.0145 1.97143 1.32666 1 4.32501e-09 
2908 1 -38.0233 0.478028 1.32666 1 2.56214e-09 
2909 1 -36.5299 2.46925 1.32664 1 2.52947e-09 
3328 1 -34.5386 0.975859 1.32662 1 9.03825e-09 
3758 1 -31.0541 1.47366 1.32658 1 1.05664e-08 
4178 1 -27.5695 1.97137 1.32645 1 3.98036e-08 
4200 1 -25.5784 0.477887 1.32624 1 9.36587e-08 
4598 1 -24.0851 2.46904 1.32597 1 2.95717e-07 
4620 1 -22.0939 0.975537 1.32546 1 1.45811e-06 
5059 1 -18.6087 1.47331 1.32447 1 1.05172e-05 
5489 1 -15.1216 1.9715 1.32586 1 2.46942e-05 
5908 1 -13.1283 0.478714 1.32992 1 4.97778e-05 
5909 1 -11.6327 2.47011 1.33531 1 0.000146689 
6328 1 -9.64077 0.977698 1.346 1 0.000637596 
6758 1 -6.16654 1.47503 1.36886 1 0.010146 
7178 1 -2.75715 1.95515 1.30956 1 0.0329658 
7198 1 -0.858029 0.460963 1.20079 1 0.327893 
9521 2 0.614052 2.37378 1.07431 5 2.43455 
9525 2 2.70604 1.41118 1.59463 5 2.77959 
10129 2 4.85084 1.32277 0.548914 1 0.0981707 
10131 2 6.79983 0.827168 1.98703 1 0.00463565 
10135 2 8.53738 2.56384 2.33719 1 0.00151309 
10693 2 9.02393 0.573184 0.922811 1 0.000470682 
7794 2 11.0102 0.0702528 2.33387 1 0.00069528 
10740 2 10.7632 2.3108 1.2767 1 0.000297142 
10742 2 12.7469 1.80845 2.68685 1 0.000338561 
10743 2 12.9935 2.05601 0.21896 1 9.4738e-05 
11303 2 14.9817 1.55627 1.62861 1 0.000106944 
11349 2 17.2172 1.30401 0.571224 1 3.67013e-05 
11910 2 19.2068 0.804922 1.97971 1 2.57782e-05 
11911 2 20.9477 2.54604 2.33156 1 1.55996e-05 
11913 2 21.4448 0.55424 0.922894 1 9.38336e-06 
11961 2 23.1863 2.29582 1.27484 1 5.56313e-06 
8440 2 23.4353 0.0557356 2.33103 1 6.14017e-06 
12521 2 25.4251 2.04578 0.218385 1 1.65075e-06 
12522 2 25.1769 1.79741 2.68287 1 3.54719e-06 
12525 2 27.4163 1.54779 1.62644 1 1.24348e-06 
13129 2 29.6558 1.29829 0.570138 1 3.6273e-07 
288 4 -59.9266 4.46051 1.32655 1 7e-16 
329 4 -57.9354 2.9671 1.32655 1 1.00004e-15 
718 4 -56.442 4.95831 1.32655 1 7.00001e-16 
759 4 -54.4508 3.4649 1.32655 1 4e-16 
1179 1 -50.9662 3.96267 1.32657 1 3.25653e-09 
1599 1 -47.4815 4.46045 1.32661 1 6.53728e-10 
2018 1 -45.4903 2.96704 1.32661 1 5.10636e-09 
2019 1 -43.9969 4.95824 1.32662 1 5.97089e-09 
2448 1 -42.0057 3.46482 1.32664 1 3.22526e-09 
2868 1 -38.5211 3.96263 1.32665 1 3.69744e-09 
3288 1 -35.0364 4.46048 1.32666 1 8.13457e-09 
3329 1 -33.0452 2.96708 1.32663 1 1.66592e-08 
3718 1 -31.5518 4.95829 1.32662 1 3.29862e-08 
3759 1 -29.5607 3.46484 1.32655 1 2.51207e-08 
4179 1 -26.0762 3.96255 1.32631 1 8.62512e-08 
4599 1 -22.5917 4.4602 1.32559 1 9.93017e-07 
5018 1 -20.6004 2.96672 1.32497 1 3.90797e-06 
5019 1 -19.1066 4.95793 1.32454 1 8.68867e-06 
5448 1 -17.1144 3.46462 1.32448 1 1.75117e-05 
5868 1 -13.6262 3.96285 1.32856 1 4.13049e-05 
6288 1 -10.1387 4.46184 1.34343 1 0.000518746 
6329 1 -8.14873 2.9701 1.35602 1 0.00177985 
6718 1 -6.66341 4.9659 1.36508 1 0.00461929 
6759 1 -4.69112 3.47452 1.36754 1 0.0273778 
7179 1 -1.37516 3.92835 1.16761 1 0.35015 
9569 2 2.40432 3.87958 0.710464 5 1.55255 
9571 2 4.38628 3.28675 1.98993 1 0.159927 
9575 2 6.06991 5.05576 2.34477 1 0.0196373 
10130 2 6.56835 3.07156 0.918102 1 0.0107344 
10180 2 8.2875 4.80986 1.27801 1 0.00181879 
10182 2 10.2661 4.30277 2.68953 1 0.000911705 
10183 2 10.5125 4.5518 0.219532 1 0.000422082 
10741 2 12.4986 4.04979 1.6302 1 0.000234729 
10789 2 14.7322 3.79614 0.572114 1 7.81949e-05 
11350 2 16.7208 3.29643 1.98077 1 6.55532e-05 
11351 2 18.4604 5.03698 2.33253 1 3.6273e-05 
11353 2 18.9578 3.04499 0.923399 1 2.30886e-05 
11401 2 20.6986 4.7862 1.27538 1 1.36439e-05 
11960 2 22.9369 4.53566 0.218643 1 4.18911e-06 
11962 2 22.6889 4.28743 2.68336 1 8.80431e-06 
11965 2 24.9279 4.03754 1.62674 1 3.1792e-06 
12569 2 27.1672 3.78776 0.57033 1 9.67642e-07 
12571 2 29.1583 3.28979 1.97832 1 7.20138e-07 
12575 2 30.9004 5.03183 2.33018 1 3.93477e-07 
19 4 -61.9178 5.95392 1.32655 5 30.976 
248 4 -60.4244 7.94513 1.32655 5 12.3904 
289 4 -58.4332 6.45172 1.32655 1 1e-16 
719 4 -54.9486 6.94953 1.32655 1 9.00001e-16 
1138 4 -52.9574 5.45612 1.32655 1 5.54611e-09 
1139 1 -51.464 7.44732 1.32658 1 4.29467e-09 
1558 1 -49.4728 5.95387 1.32661 1 5.95428e-09 
1559 1 -47.9794 7.94508 1.32661 1 2.83088e-09 
1978 1 -45.9881 6.45166 1.32662 1 2.42143e-09 
2408 1 -42.5035 6.94943 1.32664 1 4.03322e-09 
2449 1 -40.5123 5.45603 1.32666 1 3.70005e-09 
2828 1 -39.0189 7.44726 1.32667 1 3.56841e-09 
2869 1 -37.0276 5.95386 1.32667 1 5.69866e-09 
3248 1 -35.5342 7.94509 1.32666 1 1.73717e-08 
3289 1 -33.543 6.45171 1.32665 1 2.19564e-08 
3719 1 -30.0585 6.94949 1.32658 1 3.99862e-08 
4138 1 -28.0673 5.45603 1.32649 1 3.97516e-08 
4139 1 -26.574 7.44719 1.32636 1 5.67111e-08 
4558 1 -24.5829 5.95371 1.32606 1 2.14942e-07 
4559 1 -23.0895 7.94484 1.32573 1 7.71312e-07 
4978 1 -21.0982 6.45135 1.32512 1 3.01457e-06 
5408 1 -17.6124 6.94912 1.3244 1 1.55743e-05 
5449 1 -15.6196 5.4559 1.3253 1 2.52569e-05 
5828 1 -14.1245 7.44732 1.32753 1 3.80848e-05 
5869 1 -12.1311 5.95439 1.33355 1 0.000126657 
6248 1 -10.6378 7.94656 1.34115 1 0.000491806 
6289 1 -8.64852 6.45466 1.35351 1 0.00165783 
6719 1 -5.19052 6.96436 1.3673 1 0.0062272 
7138 1 -3.23919 5.47949 1.35212 1 0.0606843 
7139 1 -1.78068 7.47673 1.3658 1 0.32766 
7428 1 0.0453319 5.96829 1.10578 5 4.86448 
9020 2 1.61893 7.95243 1.12541 5 4.22225 
9021 2 2.03494 5.79683 2.20408 5 6.10188 
9025 2 3.61167 7.59127 2.3864 5 4.05754 
9570 2 4.11114 5.5941 0.951281 1 0.111485 
9620 2 5.80842 7.31783 1.27954 1 0.0189686 
9622 2 7.77822 6.79916 2.69148 1 0.00518303 
9623 2 8.02838 7.05082 0.217644 1 0.0017702 
10181 2 10.0141 6.54644 1.6313 1 0.000803959 
10229 2 12.2474 6.29015 0.573078 1 0.00020521 
10790 2 14.2347 5.7891 1.98228 1 0.000142026 
10791 2 15.9736 7.52869 2.33346 1 8.01784e-05 
10793 2 16.4712 5.53654 0.924387 1 5.04747e-05 
10841 2 18.2114 7.27716 1.27604 1 3.09177e-05 
11400 2 20.4491 7.0259 0.219022 1 1.04642e-05 
11402 2 20.201 6.77786 2.68406 1 1.99017e-05 
11405 2 22.4399 6.5276 1.62719 1 7.84969e-06 
12009 2 24.6787 6.27746 0.570578 1 2.41002e-06 
12011 2 26.6698 5.77936 1.97859 1 1.76553e-06 
12015 2 28.4117 7.52129 2.33042 1 9.77198e-07 
12570 2 28.9092 5.52981 0.922234 1 5.40886e-07 
12620 2 30.6514 7.27189 1.27412 1 2.96056e-07 
249 4 -58.931 9.93634 1.32655 1 5.00402e-16 
678 4 -56.9398 8.44293 1.32655 1 7.00401e-16 
679 4 -55.4464 10.4341 1.32655 1 9.00401e-16 
1098 4 -53.4552 8.94074 1.32655 1 1.91475e-09 
1518 1 -49.9706 9.43852 1.32659 1 4.51318e-09 
1938 1 -46.4859 9.93626 1.32662 1 2.27146e-09 
1979 1 -44.4947 8.44285 1.32663 1 3.39302e-09 
2368 1 -43.0013 10.4341 1.32665 1 3.85805e-09 
2409 1 -41.0101 8.94064 1.32666 1 5.40594e-09 
2829 1 -37.5254 9.4385 1.32667 1 8.03715e-09 
3249 1 -34.0408 9.93632 1.32663 1 5.40041e-09 
3678 1 -32.0496 8.44292 1.32661 1 1.19924e-08 
3679 1 -30.5562 10.4341 1.32656 1 1.60687e-08 
4098 1 -28.5651 8.94067 1.32651 1 5.11062e-08 
4518 1 -25.0807 9.43833 1.32617 1 1.619e-07 
4938 1 -21.596 9.93597 1.32529 1 2.1346e-06 
4979 1 -19.6045 8.44249 1.32467 1 6.87155e-06 
5368 1 -18.1105 10.4337 1.32442 1 1.2746e-05 
5409 1 -16.1179 8.94041 1.32495 1 2.21804e-05 
5829 1 -12.6299 9.43921 1.33172 1 8.881e-05 
6249 1 -9.14664 9.93916 1.34999 1 0.00120719 
6678 1 -7.16472 8.44811 1.36116 1 0.0025671 
6679 1 -5.67578 10.4342 1.36727 1 0.00783209 
7098 1 -3.70622 8.95321 1.36962 1 0.0333258 
7424 1 -0.384131 9.44987 1.29348 1 0.785921 
9070 2 3.28768 9.81258 1.32738 5 0.814564 
9072 2 5.34569 9.3025 2.68936 1 0.0982239 
9073 2 5.52675 9.55595 0.222721 1 0.0251056 
9621 2 7.54428 9.04515 1.62406 1 0.00803601 
9669 2 9.76648 8.7857 0.569294 1 0.000938222 
9673 2 11.5029 10.5232 0.923681 1 0.000315901 
10230 2 11.751 8.2832 1.98213 1 0.000374777 
10231 2 13.4885 10.0214 2.33397 1 0.000195014 
10233 2 13.9859 8.02919 0.924686 1 0.000116967 
10281 2 15.7254 9.76897 1.27637 1 6.83508e-05 
10840 2 17.9621 9.51674 0.219242 1 2.40862e-05 
10842 2 17.7137 9.26885 2.6847 1 4.3988e-05 
10845 2 19.9523 9.0181 1.62763 1 1.78105e-05 
11449 2 22.1906 8.76746 0.570869 1 6.08509e-06 
11450 2 23.9325 10.5092 0.922687 1 3.5684e-06 
11451 2 24.1815 8.26919 1.97894 1 4.45718e-06 
11455 2 25.9233 10.0109 2.33072 1 2.54255e-06 
12010 2 26.4207 8.01936 0.922451 1 1.38352e-06 
12060 2 28.1627 9.76132 1.27432 1 8.11624e-07 
12062 2 30.1538 9.26328 2.68226 1 5.36612e-07 
12063 2 30.4023 9.51188 0.218052 1 2.32242e-07 
208 4 -60.9222 11.4298 1.32655 5 18.5856 
638 4 -57.4376 11.9276 1.32655 1 7.004e-16 
1058 4 -53.953 12.4254 1.32655 1 7.80256e-11 
1099 1 -51.9618 10.9319 1.32656 1 2.73025e-09 
1478 1 -50.4684 12.9231 1.32657 1 2.59057e-09 
1519 1 -48.4772 11.4297 1.3266 1 1.34575e-09 
1939 1 -44.9925 11.9275 1.32662 1 3.92692e-09 
2369 1 -41.5079 12.4253 1.32667 1 5.86764e-09 
2788 1 -39.5167 10.9319 1.32667 1 1.81827e-09 
2789 1 -38.0233 12.9231 1.32666 1 2.56212e-09 
3208 1 -36.032 11.4297 1.32664 1 1.16665e-08 
3638 1 -32.5474 11.9275 1.32659 1 4.90041e-09 
4058 1 -29.0629 12.4253 1.32652 1 2.60801e-08 
4099 1 -27.0718 10.9318 1.32641 1 5.03267e-08 
4478 1 -25.5784 12.923 1.32624 1 9.36587e-08 
4519 1 -23.5873 11.4295 1.32586 1 4.79554e-07 
4939 1 -20.1024 11.9271 1.32483 1 5.12013e-06 
5369 1 -16.6163 12.4251 1.32468 1 1.8833e-05 
5788 1 -14.6233 10.932 1.32663 1 2.81537e-05 
5789 1 -13.1283 12.9238 1.32992 1 4.97778e-05 
6208 1 -11.1356 11.4315 1.3379 1 0.000239429 
6638 1 -7.65427 11.9288 1.35952 1 0.00327319 
7058 1 -4.1978 12.4163 1.35995 1 0.0174253 
7099 1 -2.24881 10.9332 1.33852 1 0.0657319 
7416 1 -0.858029 12.906 1.20079 1 0.327893 
8590 2 1.06103 11.544 1.30993 5 2.0029 
8593 2 3.11553 11.9648 0.169705 5 1.32019 
9071 2 5.04883 11.5421 1.64424 1 0.0527795 
9119 2 7.27731 11.284 0.571943 1 0.0035237 
9120 2 6.79983 13.2722 1.98703 1 0.00463565 
9123 2 9.02393 13.0183 0.922811 1 0.000470682 
9670 2 9.27249 10.7792 1.98155 1 0.00179978 
9671 2 11.0102 12.5153 2.33387 1 0.00069528 
9721 2 13.2424 12.2618 1.27604 1 0.000171681 
10280 2 15.4766 12.0084 0.218967 1 5.38795e-05 
10282 2 15.2286 11.7605 2.68531 1 0.000105699 
10285 2 17.4659 11.5092 1.62793 1 4.11193e-05 
10331 2 19.2068 13.25 1.97971 1 2.57782e-05 
10889 2 19.7033 11.2579 0.57101 1 1.4864e-05 
10890 2 21.4448 12.9993 0.922894 1 9.38336e-06 
10891 2 21.6937 10.7593 1.97928 1 1.02333e-05 
10895 2 23.4353 12.5008 2.33103 1 6.14017e-06 
11500 2 25.6744 12.251 1.27455 1 2.1622e-06 
11502 2 27.6653 11.7528 2.68253 1 1.49489e-06 
11503 2 27.9136 12.0013 0.21821 1 6.14337e-07 
12061 2 29.9049 11.5034 1.6262 1 4.68188e-07 
168 4 -61.42 14.9144 1.32655 5 18.5856 
209 4 -59.4288 13.421 1.32655 1 6.99999e-16 
598 4 -57.9354 15.4122 1.32655 1 8.99999e-16 
639 4 -55.9442 13.9188 1.32655 1 5.75868e-29 
1018 4 -54.4508 15.91 1.32655 1 5e-16 
1059 4 -52.4596 14.4166 1.32655 1 6.83871e-09 
1479 1 -48.9749 14.9143 1.3266 1 6.1208e-09 
1898 1 -46.9837 13.4209 1.32661 1 2.87612e-09 
1899 1 -45.4903 15.4121 1.32661 1 5.10636e-09 
2328 1 -43.4991 13.9187 1.32664 1 3.63638e-09 
2329 1 -42.0057 15.9099 1.32664 1 3.22526e-09 
2748 1 -40.0145 14.4165 1.32666 1 4.32502e-09 
3168 1 -36.5299 14.9143 1.32664 1 2.52945e-09 
3209 1 -34.5386 13.4209 1.32662 1 9.03824e-09 
3598 1 -33.0452 15.4122 1.32663 1 1.66592e-08 
3639 1 -31.0541 13.9187 1.32658 1 1.05664e-08 
4018 1 -29.5607 15.9099 1.32655 1 2.51206e-08 
4059 1 -27.5695 14.4165 1.32645 1 3.98036e-08 
4479 1 -24.0851 14.9141 1.32597 1 2.95717e-07 
4898 1 -22.0939 13.4206 1.32546 1 1.45811e-06 
4899 1 -20.6004 15.4118 1.32497 1 3.90797e-06 
5328 1 -18.6087 13.9184 1.32447 1 1.05172e-05 
5329 1 -17.1144 15.9097 1.32448 1 1.75117e-05 
5748 1 -15.1216 14.4166 1.32586 1 2.46942e-05 
6168 1 -11.6327 14.9152 1.33531 1 0.000146689 
6209 1 -9.64077 13.4228 1.346 1 0.000637596 
6598 1 -8.14873 15.4152 1.35602 1 0.00177985 
6639 1 -6.16654 13.9201 1.36886 1 0.010146 
7018 1 -4.69112 15.9196 1.36754 1 0.0273778 
7059 1 -2.75715 14.4002 1.30956 1 0.0329658 
8194 2 0.614052 14.8189 1.07431 5 2.43455 
8591 2 2.70604 13.8563 1.59463 5 2.77959 
8639 2 4.85084 13.7678 0.548914 1 0.0981707 
8640 2 4.38628 15.7318 1.98993 1 0.159927 
8643 2 6.56835 15.5166 0.918102 1 0.0107344 
9121 2 8.53738 15.0089 2.33719 1 0.00151309 
9171 2 10.7632 14.7559 1.2767 1 0.000297142 
9720 2 12.9935 14.5011 0.21896 1 9.4738e-05 
9722 2 12.7469 14.2535 2.68685 1 0.000338561 
9725 2 14.9817 14.0013 1.62861 1 0.000106944 
9771 2 16.7208 15.7415 1.98077 1 6.55532e-05 
10329 2 17.2172 13.7491 0.571224 1 3.67013e-05 
10330 2 18.9578 15.4901 0.923399 1 2.30886e-05 
10335 2 20.9477 14.9911 2.33156 1 1.55996e-05 
10940 2 23.1863 14.7409 1.27484 1 5.56313e-06 
10942 2 25.1769 14.2425 2.68287 1 3.54719e-06 
10943 2 25.4251 14.4909 0.218385 1 1.65075e-06 
11501 2 27.4163 13.9929 1.62644 1 1.24348e-06 
11549 2 29.6558 13.7434 0.570138 1 3.6273e-07 
11550 2 29.1583 15.7349 1.97832 1 7.20138e-07 
128 4 -61.9178 18.399 1.32655 5 30.976 
169 4 -59.9266 16.9056 1.32655 1 7.00001e-16 
599 4 -56.442 17.4034 1.32655 1 7.00001e-16 
1019 4 -52.9574 17.9012 1.32655 1 5.54644e-09 
1438 1 -50.9662 16.4077 1.32657 1 3.25685e-09 
1439 1 -49.4728 18.3989 1.32661 1 5.95459e-09 
1858 1 -47.4815 16.9055 1.32661 1 6.53729e-10 
2288 1 -43.9969 17.4033 1.32662 1 5.97091e-09 
2708 1 -40.5123 17.9011 1.32666 1 3.70003e-09 
2749 1 -38.5211 16.4077 1.32665 1 3.69742e-09 
3128 1 -37.0276 18.3989 1.32667 1 5.69868e-09 
3169 1 -35.0364 16.9056 1.32666 1 8.13457e-09 
3599 1 -31.5518 17.4034 1.32662 1 3.29862e-08 
4019 1 -28.0673 17.9011 1.32649 1 3.97516e-08 
4438 1 -26.0762 16.4076 1.32631 1 8.62513e-08 
4439 1 -24.5829 18.3988 1.32606 1 2.14942e-07 
4858 1 -22.5917 16.9053 1.32559 1 9.93017e-07 
5288 1 -19.1066 17.403 1.32454 1 8.68867e-06 
5708 1 -15.6196 17.901 1.3253 1 2.52569e-05 
5749 1 -13.6262 16.4079 1.32856 1 4.13049e-05 
6128 1 -12.1311 18.3995 1.33355 1 0.000126657 
6169 1 -10.1387 16.9069 1.34343 1 0.000518746 
6599 1 -6.66341 17.411 1.36508 1 0.00461929 
7019 1 -3.23919 17.9246 1.35212 1 0.0606843 
7378 1 0.0453319 18.4134 1.10578 5 4.86448 
7398 1 -1.37516 16.3734 1.16761 1 0.35015 
8239 2 2.40432 16.3247 0.710464 5 1.55255 
8240 2 2.03494 18.2419 2.20408 5 6.10188 
8243 2 4.11114 18.0392 0.951281 1 0.111485 
8641 2 6.06991 17.5008 2.34477 1 0.0196373 
8691 2 8.2875 17.2549 1.27801 1 0.00181879 
9172 2 10.2661 16.7478 2.68953 1 0.000911705 
9170 2 10.5125 16.9969 0.219532 1 0.000422082 
9175 2 12.4986 16.4949 1.6302 1 0.000234729 
9221 2 14.2347 18.2342 1.98228 1 0.000142026 
9769 2 14.7322 16.2412 0.572114 1 7.81949e-05 
9770 2 16.4712 17.9816 0.924387 1 5.04747e-05 
9775 2 18.4604 17.4821 2.33253 1 3.6273e-05 
10380 2 20.6986 17.2313 1.27538 1 1.36439e-05 
10382 2 22.6889 16.7325 2.68336 1 8.80431e-06 
10383 2 22.9369 16.9807 0.218643 1 4.18911e-06 
10941 2 24.9279 16.4826 1.62674 1 3.1792e-06 
10989 2 27.1672 16.2328 0.57033 1 9.67642e-07 
10990 2 26.6698 18.2244 1.97859 1 1.76553e-06 
10993 2 28.9092 17.9749 0.922234 1 5.40886e-07 
11551 2 30.9004 17.4769 2.33018 1 3.93477e-07 
129 4 -60.4244 20.3902 1.32655 5 12.3904 
558 4 -58.4332 18.8968 1.32655 1 1.06733e-27 
559 4 -56.9398 20.888 1.32655 1 9e-16 
978 4 -54.9486 19.3946 1.32655 1 9e-16 
1398 1 -51.464 19.8924 1.32658 1 4.29469e-09 
1818 1 -47.9794 20.3902 1.32661 1 2.83089e-09 
1859 1 -45.9881 18.8967 1.32662 1 2.42139e-09 
2248 1 -44.4947 20.8879 1.32663 1 3.39301e-09 
2289 1 -42.5035 19.3945 1.32664 1 4.03321e-09 
2709 1 -39.0189 19.8923 1.32667 1 3.56842e-09 
3129 1 -35.5342 20.3902 1.32666 1 1.73717e-08 
3558 1 -33.543 18.8968 1.32665 1 2.19564e-08 
3559 1 -32.0496 20.888 1.32661 1 1.19924e-08 
3978 1 -30.0585 19.3946 1.32658 1 3.99862e-08 
4398 1 -26.574 19.8923 1.32636 1 5.67111e-08 
4818 1 -23.0895 20.3899 1.32573 1 7.71312e-07 
4859 1 -21.0982 18.8964 1.32512 1 3.01457e-06 
5248 1 -19.6045 20.8876 1.32467 1 6.87155e-06 
5289 1 -17.6124 19.3942 1.3244 1 1.55743e-05 
5709 1 -14.1245 19.8924 1.32753 1 3.80848e-05 
6129 1 -10.6378 20.3916 1.34115 1 0.000491806 
6558 1 -8.64852 18.8997 1.35351 1 0.00165783 
6559 1 -7.16472 20.8932 1.36116 1 0.0025671 
6978 1 -5.19052 19.4094 1.3673 1 0.0062272 
7376 1 -1.78068 19.9218 1.3658 1 0.32766 
7923 2 1.61893 20.3975 1.12541 5 4.22225 
8241 2 3.61167 20.0363 2.3864 5 4.05754 
8291 2 5.80842 19.7629 1.27954 1 0.0189686 
8692 2 7.77822 19.2442 2.69148 1 0.00518303 
8690 2 8.02838 19.4959 0.217644 1 0.0017702 
8695 2 10.0141 18.9915 1.6313 1 0.000803959 
8739 2 9.76648 21.2308 0.569294 1 0.000938222 
8741 2 11.751 20.7283 1.98213 1 0.000374777 
9219 2 12.2474 18.7352 0.573078 1 0.00020521 
9220 2 13.9859 20.4743 0.924686 1 0.000116967 
9225 2 15.9736 19.9738 2.33346 1 8.01784e-05 
9820 2 18.2114 19.7222 1.27604 1 3.09177e-05 
9822 2 20.201 19.2229 2.68406 1 1.99017e-05 
9823 2 20.4491 19.471 0.219022 1 1.04642e-05 
9868 2 22.1906 21.2125 0.570869 1 6.08509e-06 
10381 2 22.4399 18.9727 1.62719 1 7.84969e-06 
10429 2 24.6787 18.7225 0.570578 1 2.41002e-06 
10430 2 24.1815 20.7143 1.97894 1 4.45718e-06 
10433 2 26.4207 20.4644 0.922451 1 1.38352e-06 
10991 2 28.4117 19.9664 2.33042 1 9.77198e-07 
11041 2 30.6514 19.717 1.27412 1 2.96056e-07 
99 4 -60.9222 23.8748 1.32655 5 18.5856 
518 4 -58.931 22.3814 1.32655 1 7e-16 
938 4 -55.4464 22.8792 1.32655 1 6.99999e-16 
979 4 -53.4552 21.3858 1.32655 1 1.91491e-09 
1358 1 -51.9618 23.377 1.32656 1 2.7297e-09 
1399 1 -49.9706 21.8836 1.32659 1 4.51303e-09 
1778 1 -48.4772 23.8748 1.3266 1 1.34582e-09 
1819 1 -46.4859 22.3813 1.32662 1 2.27149e-09 
2249 1 -43.0013 22.8791 1.32665 1 3.85803e-09 
2668 1 -41.0101 21.3857 1.32666 1 5.40595e-09 
2669 1 -39.5167 23.377 1.32667 1 1.81826e-09 
3088 1 -37.5254 21.8836 1.32667 1 8.03716e-09 
3089 1 -36.032 23.8748 1.32664 1 1.16665e-08 
3518 1 -34.0408 22.3814 1.32663 1 5.40039e-09 
3938 1 -30.5562 22.8792 1.32656 1 1.60687e-08 
3979 1 -28.5651 21.3858 1.32651 1 5.11062e-08 
4358 1 -27.0718 23.3769 1.32641 1 5.03266e-08 
4399 1 -25.0807 21.8834 1.32617 1 1.619e-07 
4778 1 -23.5873 23.8745 1.32586 1 4.79554e-07 
4819 1 -21.596 22.381 1.32529 1 2.1346e-06 
5249 1 -18.1105 22.8788 1.32442 1 1.2746e-05 
5668 1 -16.1179 21.3855 1.32495 1 2.21804e-05 
5669 1 -14.6233 23.3771 1.32663 1 2.81537e-05 
6088 1 -12.6299 21.8843 1.33172 1 8.881e-05 
6089 1 -11.1356 23.8765 1.3379 1 0.000239429 
6518 1 -9.14664 22.3842 1.34999 1 0.00120719 
6938 1 -5.67578 22.8793 1.36727 1 0.00783209 
6979 1 -3.70622 21.3983 1.36962 1 0.0333258 
7349 1 -2.24881 23.3783 1.33852 1 0.0657319 
7377 1 -0.384131 21.8949 1.29348 1 0.785921 
7720 2 1.06103 23.9891 1.30993 5 2.0029 
7969 2 3.28768 22.2577 1.32738 5 0.814564 
7973 2 5.04883 23.9872 1.64424 1 0.0527795 
8290 2 5.52675 22.001 0.222721 1 0.0251056 
8292 2 5.34569 21.7476 2.68936 1 0.0982239 
8295 2 7.54428 21.4902 1.62406 1 0.00803601 
8335 2 7.27731 23.7291 0.571943 1 0.0035237 
8337 2 9.27249 23.2243 1.98155 1 0.00179978 
8740 2 11.5029 22.9683 0.923681 1 0.000315901 
8745 2 13.4885 22.4665 2.33397 1 0.000195014 
9269 2 15.7254 22.2141 1.27637 1 6.83508e-05 
9270 2 17.4659 23.9543 1.62793 1 4.11193e-05 
9271 2 17.7137 21.7139 2.6847 1 4.3988e-05 
9272 2 17.9621 21.9618 0.219242 1 2.40862e-05 
9312 2 19.7033 23.703 0.57101 1 1.4864e-05 
9821 2 19.9523 21.4632 1.62763 1 1.78105e-05 
9869 2 21.6937 23.2044 1.97928 1 1.02333e-05 
9872 2 23.9325 22.9542 0.922687 1 3.5684e-06 
10431 2 25.9233 22.456 2.33072 1 2.54255e-06 
10479 2 28.1627 22.2064 1.27432 1 8.11624e-07 
10483 2 29.9049 23.9484 1.6262 1 4.68188e-07 
11040 2 30.4023 21.957 0.218052 1 2.32242e-07 
11042 2 30.1538 21.7084 2.68226 1 5.36612e-07 
478 4 -59.4288 25.866 1.32655 1 9e-16 
519 4 -57.4376 24.3726 1.32655 1 5e-16 
898 4 -55.9442 26.3638 1.32655 1 7.09975e-30 
939 4 -53.953 24.8704 1.32655 1 7.80782e-11 
1359 1 -50.4684 25.3682 1.32657 1 2.59008e-09 
1779 1 -46.9837 25.866 1.32661 1 2.87613e-09 
2208 1 -44.9925 24.3725 1.32662 1 3.92691e-09 
2209 1 -43.4991 26.3638 1.32664 1 3.63637e-09 
2628 1 -41.5079 24.8704 1.32667 1 5.86763e-09 
3048 1 -38.0233 25.3682 1.32666 1 2.56213e-09 
3478 1 -34.5386 25.866 1.32662 1 9.03823e-09 
3519 1 -32.5474 24.3726 1.32659 1 4.90042e-09 
3898 1 -31.0541 26.3638 1.32658 1 1.05665e-08 
3939 1 -29.0629 24.8704 1.32652 1 2.60801e-08 
4359 1 -25.5784 25.368 1.32624 1 9.36587e-08 
4779 1 -22.0939 25.8657 1.32546 1 1.45811e-06 
5208 1 -20.1024 24.3722 1.32483 1 5.12013e-06 
5209 1 -18.6087 26.3635 1.32447 1 1.05172e-05 
5628 1 -16.6163 24.8702 1.32468 1 1.8833e-05 
6048 1 -13.1283 25.3689 1.32992 1 4.97778e-05 
6478 1 -9.64077 25.8679 1.346 1 0.000637596 
6519 1 -7.65427 24.3739 1.35952 1 0.00327319 
6898 1 -6.16654 26.3652 1.36886 1 0.010146 
6939 1 -4.1978 24.8613 1.35995 1 0.0174253 
7350 1 -0.858029 25.3511 1.20079 1 0.327893 
7724 2 2.70604 26.3013 1.59463 5 2.77959 
7968 2 3.11553 24.4099 0.169705 5 1.32019 
8007 2 4.85084 26.2129 0.548914 1 0.0981707 
8009 2 6.79983 25.7173 1.98703 1 0.00463565 
8336 2 9.02393 25.4633 0.922811 1 0.000470682 
8341 2 11.0102 24.9604 2.33387 1 0.00069528 
8784 2 13.2424 24.7069 1.27604 1 0.000171681 
8785 2 14.9817 26.4464 1.62861 1 0.000106944 
8786 2 15.2286 24.2056 2.68531 1 0.000105699 
8787 2 15.4766 24.4535 0.218967 1 5.38795e-05 
8819 2 17.2172 26.1942 0.571224 1 3.67013e-05 
9313 2 19.2068 25.6951 1.97971 1 2.57782e-05 
9316 2 21.4448 25.4444 0.922894 1 9.38336e-06 
9870 2 23.4353 24.9459 2.33103 1 6.14017e-06 
9910 2 25.6744 24.696 1.27455 1 2.1622e-06 
9914 2 27.4163 26.438 1.62644 1 1.24348e-06 
10478 2 27.9136 24.4463 0.21821 1 6.14337e-07 
10480 2 27.6653 24.1979 2.68253 1 1.49489e-06 
10517 2 29.6558 26.1884 0.570138 1 3.6273e-07 
79 4 -61.42 27.3595 1.32655 5 18.5856 
479 4 -57.9354 27.8573 1.32655 1 6.99999e-16 
899 4 -54.4508 28.3551 1.32655 1 7e-16 
1318 4 -52.4596 26.8617 1.32655 1 6.83924e-09 
1319 1 -50.9662 28.8528 1.32657 1 3.25691e-09 
1738 1 -48.9749 27.3594 1.3266 1 6.12076e-09 
2168 1 -45.4903 27.8572 1.32661 1 5.10638e-09 
2588 1 -42.0057 28.355 1.32664 1 3.22525e-09 
2629 1 -40.0145 26.8616 1.32666 1 4.32501e-09 
3008 1 -38.5211 28.8528 1.32665 1 3.69742e-09 
3049 1 -36.5299 27.3594 1.32664 1 2.52947e-09 
3479 1 -33.0452 27.8572 1.32663 1 1.66592e-08 
3899 1 -29.5607 28.355 1.32655 1 2.51206e-08 
4318 1 -27.5695 26.8615 1.32645 1 3.98036e-08 
4319 1 -26.0762 28.8527 1.32631 1 8.62512e-08 
4738 1 -24.0851 27.3592 1.32597 1 2.95717e-07 
5168 1 -20.6004 27.8569 1.32497 1 3.90797e-06 
5588 1 -17.1144 28.3548 1.32448 1 1.75117e-05 
5629 1 -15.1216 26.8617 1.32586 1 2.46942e-05 
6008 1 -13.6262 28.853 1.32856 1 4.13049e-05 
6049 1 -11.6327 27.3603 1.33531 1 0.000146689 
6479 1 -8.14873 27.8603 1.35602 1 0.00177985 
6899 1 -4.69112 28.3647 1.36754 1 0.0273778 
7316 1 -2.75715 26.8453 1.30956 1 0.0329658 
7317 1 -1.37516 28.8185 1.16761 1 0.35015 
7719 2 0.614052 27.2639 1.07431 5 2.43455 
7752 2 2.40432 28.7697 0.710464 5 1.55255 
7754 2 4.38628 28.1769 1.98993 1 0.159927 
8008 2 6.56835 27.9617 0.918102 1 0.0107344 
8013 2 8.53738 27.454 2.33719 1 0.00151309 
8040 2 10.2661 29.1929 2.68953 1 0.000911705 
8374 2 10.7632 27.201 1.2767 1 0.000297142 
8375 2 12.4986 28.9399 1.6302 1 0.000234729 
8376 2 12.7469 26.6986 2.68685 1 0.000338561 
8377 2 12.9935 26.9462 0.21896 1 9.4738e-05 
8403 2 14.7322 28.6863 0.572114 1 7.81949e-05 
8820 2 16.7208 28.1866 1.98077 1 6.55532e-05 
8823 2 18.9578 27.9351 0.923399 1 2.30886e-05 
9314 2 20.9477 27.4362 2.33156 1 1.55996e-05 
9348 2 23.1863 27.186 1.27484 1 5.56313e-06 
9349 2 22.6889 29.1776 2.68336 1 8.80431e-06 
9352 2 24.9279 28.9277 1.62674 1 3.1792e-06 
9909 2 25.4251 26.9359 0.218385 1 1.65075e-06 
9911 2 25.1769 26.6876 2.68287 1 3.54719e-06 
9942 2 27.1672 28.6779 0.57033 1 9.67642e-07 
9944 2 29.1583 28.1799 1.97832 1 7.20138e-07 
59 4 -61.9178 30.8441 1.32655 5 30.976 
438 4 -59.9266 29.3507 1.32655 1 4e-16 
439 4 -58.4332 31.3419 1.32655 1 1e-16 
858 4 -56.442 29.8485 1.32655 1 9.00001e-16 
859 4 -54.9486 31.8397 1.32655 1 6.00001e-16 
1278 4 -52.9574 30.3463 1.32655 1 5.5475e-09 
1698 1 -49.4728 30.844 1.32661 1 5.95458e-09 
1739 1 -47.4815 29.3506 1.32661 1 6.53729e-10 
2128 1 -45.9881 31.3418 1.32662 1 2.42141e-09 
2169 1 -43.9969 29.8484 1.32662 1 5.97089e-09 
2548 1 -42.5035 31.8396 1.32664 1 4.03323e-09 
2589 1 -40.5123 30.3462 1.32666 1 3.70005e-09 
3009 1 -37.0276 30.844 1.32667 1 5.69867e-09 
3438 1 -35.0364 29.3506 1.32666 1 8.13456e-09 
3439 1 -33.543 31.3419 1.32665 1 2.19565e-08 
3858 1 -31.5518 29.8484 1.32662 1 3.29861e-08 
3859 1 -30.0585 31.8396 1.32658 1 3.99862e-08 
4278 1 -28.0673 30.3462 1.32649 1 3.97515e-08 
4698 1 -24.5829 30.8439 1.32606 1 2.14942e-07 
4739 1 -22.5917 29.3504 1.32559 1 9.93017e-07 
5128 1 -21.0982 31.3415 1.32512 1 3.01457e-06 
5169 1 -19.1066 29.8481 1.32454 1 8.68867e-06 
5548 1 -17.6124 31.8393 1.3244 1 1.55743e-05 
5589 1 -15.6196 30.3461 1.3253 1 2.52569e-05 
6009 1 -12.1311 30.8445 1.33355 1 0.000126657 
6438 1 -10.1387 29.352 1.34343 1 0.000518746 
6439 1 -8.64852 31.3448 1.35351 1 0.00165783 
6858 1 -6.66341 29.8561 1.36508 1 0.00461929 
6859 1 -5.19052 31.8545 1.3673 1 0.0062272 
7276 1 -3.23919 30.3696 1.35212 1 0.0606843 
7440 1 0.0453319 30.8584 1.10578 5 4.86448 
7574 2 2.03494 30.687 2.20408 5 6.10188 
7753 2 4.11114 30.4843 0.951281 1 0.111485 
7758 2 6.06991 29.9459 2.34477 1 0.0196373 
7779 2 7.77822 31.6893 2.69148 1 0.00518303 
7780 2 8.02838 31.941 0.217644 1 0.0017702 
8038 2 8.2875 29.7 1.27801 1 0.00181879 
8039 2 10.0141 31.4366 1.6313 1 0.000803959 
8041 2 10.5125 29.442 0.219532 1 0.000422082 
8061 2 12.2474 31.1803 0.573078 1 0.00020521 
8404 2 14.2347 30.6793 1.98228 1 0.000142026 
8407 2 16.4712 30.4267 0.924387 1 5.04747e-05 
8821 2 18.4604 29.9271 2.33253 1 3.6273e-05 
8848 2 20.4491 31.9161 0.219022 1 1.04642e-05 
8849 2 20.6986 29.6764 1.27538 1 1.36439e-05 
8850 2 20.201 31.668 2.68406 1 1.99017e-05 
8853 2 22.4399 31.4178 1.62719 1 7.84969e-06 
9347 2 22.9369 29.4258 0.218643 1 4.18911e-06 
9372 2 24.6787 31.1676 0.570578 1 2.41002e-06 
9374 2 26.6698 30.6695 1.97859 1 1.76553e-06 
9943 2 28.9092 30.42 0.922234 1 5.40886e-07 
9948 2 30.9004 29.922 2.33018 1 3.93477e-07 
398 4 -60.4244 32.8353 1.32655 5 12.3904 
818 4 -56.9398 33.3331 1.32655 1 8.99999e-16 
1238 4 -53.4552 33.8309 1.32655 1 1.91476e-09 
1279 1 -51.464 32.3375 1.32658 1 4.29483e-09 
1658 1 -49.9706 34.3287 1.32659 1 4.51314e-09 
1699 1 -47.9794 32.8352 1.32661 1 2.83098e-09 
2129 1 -44.4947 33.333 1.32663 1 3.39299e-09 
2549 1 -41.0101 33.8308 1.32666 1 5.40591e-09 
2968 1 -39.0189 32.3374 1.32667 1 3.56843e-09 
2969 1 -37.5254 34.3287 1.32667 1 8.03715e-09 
3398 1 -35.5342 32.8353 1.32666 1 1.73717e-08 
3818 1 -32.0496 33.3331 1.32661 1 1.19924e-08 
4238 1 -28.5651 33.8308 1.32651 1 5.11062e-08 
4279 1 -26.574 32.3374 1.32636 1 5.67111e-08 
4658 1 -25.0807 34.3285 1.32617 1 1.619e-07 
4699 1 -23.0895 32.835 1.32573 1 7.71312e-07 
5129 1 -19.6045 33.3326 1.32467 1 6.87155e-06 
5549 1 -16.1179 33.8306 1.32495 1 2.21804e-05 
5968 1 -14.1245 32.3375 1.32753 1 3.80848e-05 
5969 1 -12.6299 34.3294 1.33172 1 8.881e-05 
6398 1 -10.6378 32.8367 1.34115 1 0.000491806 
6818 1 -7.16472 33.3383 1.36116 1 0.0025671 
7236 1 -3.70622 33.8434 1.36962 1 0.0333258 
7277 1 -1.78068 32.3669 1.3658 1 0.32766 
7436 1 -0.384131 34.34 1.29348 1 0.785921 
7573 2 1.61893 32.8426 1.12541 5 4.22225 
7578 2 3.61167 32.4814 2.3864 5 4.05754 
7593 2 5.34569 34.1927 2.68936 1 0.0982239 
7594 2 5.52675 34.4461 0.222721 1 0.0251056 
7777 2 5.80842 32.208 1.27954 1 0.0189686 
7778 2 7.54428 33.9353 1.62406 1 0.00803601 
7792 2 9.76648 33.6759 0.569294 1 0.000938222 
8062 2 11.751 33.1734 1.98213 1 0.000374777 
8065 2 13.9859 32.9193 0.924686 1 0.000116967 
8077 2 15.7254 34.6591 1.27637 1 6.83508e-05 
8405 2 15.9736 32.4188 2.33346 1 8.01784e-05 
8424 2 17.9621 34.4069 0.219242 1 2.40862e-05 
8425 2 18.2114 32.1673 1.27604 1 3.09177e-05 
8426 2 17.7137 34.159 2.6847 1 4.3988e-05 
8429 2 19.9523 33.9083 1.62763 1 1.78105e-05 
8867 2 22.1906 33.6576 0.570869 1 6.08509e-06 
8869 2 24.1815 33.1594 1.97894 1 4.45718e-06 
9373 2 26.4207 32.9095 0.922451 1 1.38352e-06 
9378 2 28.4117 32.4114 2.33042 1 9.77198e-07 
9391 2 28.1627 34.6515 1.27432 1 8.11624e-07 
9393 2 30.1538 34.1534 2.68226 1 5.36612e-07 
9394 2 30.4023 34.402 0.218052 1 2.32242e-07 
9967 2 30.6514 32.162 1.27412 1 2.96056e-07 
359 4 -60.9222 36.3199 1.32655 5 12.3904 
340 4 -57.4376 36.8177 1.32655 1 1.29756e-15 
399 4 -58.931 34.8265 1.32655 1 7e-16 
819 4 -55.4464 35.3243 1.32655 1 6.99999e-16 
780 4 -53.953 37.3155 1.32655 1 7.80264e-11 
1239 1 -51.9618 35.8221 1.32656 1 2.73014e-09 
1659 1 -48.4772 36.3199 1.3266 1 1.34572e-09 
2089 1 -46.4859 34.8264 1.32662 1 2.27145e-09 
2058 1 -44.9925 36.8176 1.32662 1 3.92695e-09 
2488 1 -41.5079 37.3154 1.32667 1 5.86762e-09 
2509 1 -43.0013 35.3242 1.32665 1 3.85801e-09 
2929 1 -39.5167 35.822 1.32667 1 1.81827e-09 
3359 1 -36.032 36.3199 1.32664 1 1.16665e-08 
3399 1 -34.0408 34.8265 1.32663 1 5.40041e-09 
3340 1 -32.5474 36.8177 1.32659 1 4.90041e-09 
3780 1 -29.0629 37.3155 1.32652 1 2.60801e-08 
3819 1 -30.5562 35.3243 1.32656 1 1.60687e-08 
4239 1 -27.0718 35.822 1.32641 1 5.03267e-08 
4659 1 -23.5873 36.3196 1.32586 1 4.79554e-07 
5089 1 -21.596 34.8261 1.32529 1 2.1346e-06 
5058 1 -20.1024 36.8173 1.32483 1 5.12013e-06 
5509 1 -18.1105 35.3239 1.32442 1 1.2746e-05 
5488 1 -16.6163 37.3152 1.32468 1 1.8833e-05 
5929 1 -14.6233 35.8222 1.32663 1 2.81537e-05 
6359 1 -11.1356 36.3216 1.3379 1 0.000239429 
6340 1 -7.65427 36.819 1.35952 1 0.00327319 
6399 1 -9.14664 34.8293 1.34999 1 0.00120719 
6819 1 -5.67578 35.3244 1.36727 1 0.00783209 
6780 1 -4.1978 37.3064 1.35995 1 0.0174253 
7237 1 -2.24881 35.8234 1.33852 1 0.0657319 
7478 2 1.06103 36.4341 1.30993 5 2.0029 
7480 2 3.11553 36.8549 0.169705 5 1.32019 