ITEM: TIMESTEP
0
ITEM: NUMBER OF ATOMS
29960
ITEM: BOX BOUNDS ss pp pp
-68.8632 121.444
0 34.8462
0 49.28
ITEM: ATOMS id type x y z c_cna c_csd 
870 4 -68.6853 1.62213 1.98464 5 37.1712 
872 4 -66.7297 0.733201 0.727494 5 6.1952 
1381 4 -64.4185 1.26656 1.48178 1 7.01287e-16 
1382 4 -62.4628 0.377627 0.224637 1 1.10342e-15 
1383 4 -62.1072 1.79992 2.23607 1 4.01003e-16 
1972 4 -60.1516 0.910988 0.978923 1 1.60084e-08 
2013 1 -57.8404 1.44428 1.73328 1 5.12497e-09 
2660 1 -55.5292 1.97754 2.48768 1 1.1902e-09 
2663 1 -55.8847 0.555269 0.47622 1 3.00619e-09 
2664 1 -53.5735 1.08852 1.23064 1 2.46515e-09 
3364 1 -51.2624 1.62177 1.98507 1 2.85667e-09 
3365 1 -49.3068 0.732734 0.728033 1 3.63658e-09 
4023 1 -46.9956 1.26599 1.48248 1 3.05165e-09 
4025 1 -45.04 0.376965 0.225455 1 6.83133e-09 
4067 1 -44.6844 1.79925 2.23694 1 7.53278e-09 
4726 1 -42.7289 0.910205 0.979912 1 8.49778e-09 
4727 1 -40.4178 1.44348 1.73438 1 1.43992e-08 
5385 1 -38.4622 0.554428 0.477332 1 4.23769e-08 
5427 1 -38.1066 1.97676 2.48884 1 2.54629e-08 
5429 1 -36.1512 1.08768 1.23182 1 6.13944e-08 
6086 1 -33.8401 1.62093 1.98626 1 7.28326e-08 
6089 1 -31.8846 0.731834 0.729178 1 1.42263e-07 
6789 1 -29.5737 1.26508 1.48363 1 1.93729e-07 
6790 1 -27.6181 0.375854 0.226511 1 5.38154e-07 
6791 1 -27.2629 1.79832 2.23807 1 2.79696e-07 
7448 1 -25.3075 0.90904 0.980875 1 9.61634e-07 
7492 1 -22.9972 1.44229 1.73526 1 1.74181e-06 
8146 1 -20.6875 1.97574 2.48973 1 3.34536e-06 
8149 1 -21.0421 0.552691 0.477808 1 8.371e-06 
8150 1 -18.7332 1.08599 1.23193 1 1.89107e-05 
8828 1 -16.4259 1.61966 1.98607 1 4.45554e-05 
8829 1 -14.4734 0.728834 0.726891 1 0.000213683 
9415 1 -12.1725 1.26248 1.47941 1 0.000564515 
9417 1 -10.2203 0.369471 0.217433 1 0.00211247 
9459 1 -9.87768 1.7968 2.23145 1 0.00150156 
9969 1 -7.93551 0.903094 0.964728 1 0.0066866 
9970 1 -5.66962 1.44239 1.70967 1 0.0248851 
10374 1 -3.74913 0.543438 0.424284 1 0.446683 
10416 1 -3.44929 2.00754 2.4913 1 0.185415 
10418 1 -1.67525 1.10339 1.25628 5 5.61379 
10705 1 0.503505 1.14811 0.833793 5 6.10495 
10986 2 2.64847 1.26276 1.47406 5 5.27259 
10988 2 4.7456 1.85473 0.713918 1 0.518208 
11027 2 6.65522 0.937007 2.00125 1 0.0143151 
11043 2 8.93302 1.48066 1.25828 1 0.00352496 
11159 2 10.873 0.589937 2.52457 1 0.000724063 
11160 2 11.2304 2.01683 0.511913 1 0.000949253 
11162 2 13.179 1.12628 1.77227 1 0.000225606 
11387 2 15.4872 1.6609 1.0188 1 7.77774e-05 
11386 2 17.4378 0.771647 2.27667 1 1.8602e-05 
11389 2 17.7963 2.19484 0.264343 1 2.44407e-05 
11712 2 19.749 1.30575 1.52193 1 6.30967e-06 
11724 2 22.06 1.83958 0.767212 1 2.04222e-06 
12168 2 24.0147 0.95083 2.02444 1 3.53134e-06 
12169 2 24.3711 2.37328 0.0126524 1 7.23235e-07 
871 4 -67.7964 3.93336 1.73321 5 18.5856 
1358 4 -65.8408 3.04443 0.476065 1 1.50409e-15 
1359 4 -64.9518 5.35566 0.224637 1 1.00202e-15 
1377 4 -65.4852 4.46672 2.48749 1 1e-15 
1379 4 -63.5295 3.57779 1.23035 1 6.98007e-16 
1969 4 -61.2183 4.11115 1.98464 1 2.38977e-09 
1973 4 -59.2626 3.22222 0.727494 1 6.04988e-08 
2659 1 -56.9514 3.75546 1.48189 1 5.51232e-09 
2661 1 -54.9958 2.86645 0.224841 1 2.67602e-09 
2662 1 -54.6402 4.28873 2.23629 1 5.31367e-09 
3321 1 -52.6846 3.39971 0.979264 1 1.72522e-09 
3362 1 -50.3734 3.93296 1.73369 1 4.87794e-09 
4022 1 -48.4178 3.04391 0.476658 1 2.18596e-09 
4019 1 -48.0623 4.46619 2.48813 1 7.22075e-09 
4020 1 -47.5289 5.35509 0.225279 1 6.79929e-09 
4024 1 -46.1067 3.57716 1.2311 1 5.2839e-09 
4722 1 -43.7955 4.11044 1.98555 1 6.50553e-09 
4724 1 -41.84 3.22139 0.728536 1 1.32349e-08 
5383 1 -39.5289 3.75466 1.48299 1 2.61549e-08 
5386 1 -37.5733 2.86559 0.225956 1 5.01452e-08 
5425 1 -37.2178 4.28792 2.23746 1 3.59339e-08 
6085 1 -35.2623 3.39884 0.980423 1 7.38816e-08 
6087 1 -32.9513 3.93211 1.73489 1 1.06634e-07 
6746 1 -30.9958 3.043 0.477812 1 1.90955e-07 
6785 1 -30.6404 4.46542 2.48936 1 1.6125e-07 
6747 1 -30.1071 5.35422 0.22647 1 2.80035e-07 
6787 1 -28.685 3.57628 1.23229 1 3.04392e-07 
7445 1 -26.3745 4.10962 1.9868 1 4.89208e-07 
7449 1 -24.4193 3.22036 0.729608 1 1.88741e-06 
8145 1 -22.1094 3.75382 1.48407 1 3.94507e-06 
8147 1 -20.1546 2.86436 0.22665 1 1.66028e-05 
8148 1 -19.8001 4.28752 2.23861 1 9.1027e-06 
8785 1 -17.8466 3.39803 0.980845 1 4.19395e-05 
8826 1 -15.5399 3.93213 1.73497 1 0.000104114 
9411 1 -13.2348 4.4666 2.48904 1 0.000250954 
9412 1 -12.697 5.3538 0.224009 1 0.000540447 
9414 1 -13.5882 3.04196 0.47592 1 0.000407926 
9416 1 -11.2883 3.57613 1.22801 1 0.00110791 
9965 1 -8.99294 4.11017 1.97816 1 0.00272672 
9967 1 -7.04928 3.21975 0.709365 1 0.0128798 
10372 1 -4.77376 3.75517 1.43849 1 0.0460006 
10375 1 -2.81523 2.88098 0.135912 1 0.501175 
10414 1 -2.48934 4.27338 2.12784 1 0.200006 
10704 1 -0.580213 3.26146 0.762964 5 4.8171 
10703 1 1.04088 4.9238 0.652117 5 7.47634 
10980 2 1.13817 2.93135 2.40555 5 4.35227 
10987 2 3.31487 3.64415 1.71759 1 0.787128 
11031 2 5.56976 4.17322 0.991222 1 0.0903484 
11033 2 7.51598 3.25907 2.26145 1 0.00391729 
11045 2 7.85958 4.69428 0.255244 1 0.0134485 
11163 2 9.81409 3.79454 1.51727 1 0.00138428 
11165 2 12.1163 4.3291 0.766676 1 0.000512801 
11369 2 14.0647 3.43816 2.02597 1 0.000102682 
11390 2 14.4215 4.86267 0.0122432 1 0.000156687 
11388 2 16.3733 3.97276 1.27059 1 3.27019e-05 
11715 2 18.3251 3.08355 2.52833 1 1.47298e-05 
11716 2 18.6829 4.50659 0.515304 1 1.00909e-05 
11718 2 20.6364 3.61754 1.77306 1 4.92037e-06 
12172 2 22.9478 4.15122 1.01825 1 2.00971e-06 
12170 2 24.9031 3.26246 2.27557 1 3.21057e-06 
12174 2 25.2592 4.68477 0.263802 1 1.05427e-06 
1355 4 -68.3298 8.02246 0.476065 5 24.7808 
1356 4 -66.9075 6.24459 1.48178 5 6.1952 
1375 4 -64.5962 6.77795 2.23607 1 5.01003e-16 
1968 4 -62.6406 5.88902 0.978923 1 9.9601e-16 
1970 4 -60.3294 6.42238 1.73321 1 1.6412e-08 
2619 1 -58.3737 5.5334 0.476114 1 1.38035e-08 
2620 1 -57.4848 7.8446 0.224724 1 4.22518e-09 
2655 1 -58.0182 6.95567 2.48756 1 5.80554e-09 
2657 1 -56.0625 6.06666 1.23051 1 1.16097e-09 
3318 1 -53.7513 6.59991 1.98491 1 2.62441e-09 
3322 1 -51.7957 5.71089 0.727872 1 6.26764e-09 
3982 1 -50.9068 8.02208 0.47651 1 5.19093e-09 
4018 1 -49.4845 6.24413 1.48231 1 4.47997e-09 
4021 1 -47.1734 6.77739 2.23674 1 5.34494e-09 
4682 1 -45.2178 5.88836 0.979711 1 6.46775e-09 
4720 1 -42.9066 6.42165 1.73416 1 1.34229e-08 
5379 1 -40.5955 6.95492 2.48863 1 2.62216e-08 
5382 1 -40.9511 5.53258 0.477139 1 2.04393e-08 
5380 1 -40.0622 7.84378 0.225779 1 2.95885e-08 
5384 1 -38.64 6.06584 1.23161 1 3.89878e-08 
6081 1 -36.329 6.59911 1.98611 1 6.11805e-08 
6083 1 -34.3735 5.71002 0.729074 1 9.01702e-08 
6743 1 -33.4847 8.02123 0.477728 1 1.11964e-07 
6744 1 -32.0626 6.24333 1.48353 1 1.37637e-07 
6783 1 -29.7518 6.77668 2.23805 1 2.50099e-07 
7444 1 -27.7965 5.88756 0.980995 1 5.16961e-07 
7446 1 -25.486 6.42096 1.73552 1 9.44364e-07 
8105 1 -23.5309 5.53177 0.478347 1 3.40682e-06 
8106 1 -22.6419 7.84296 0.22688 1 4.7434e-06 
8141 1 -23.1757 6.95446 2.49005 1 1.82472e-06 
8143 1 -21.2211 6.06531 1.23276 1 7.10949e-06 
8782 1 -18.9115 6.59902 1.98718 1 1.44633e-05 
8786 1 -16.958 5.70973 0.729361 1 6.51533e-05 
9374 1 -16.067 8.02011 0.477088 1 8.16836e-05 
9410 1 -14.6504 6.24353 1.48302 1 0.000143487 
9413 1 -12.3431 6.77707 2.23604 1 0.00028522 
9925 1 -10.3933 5.88665 0.974396 1 0.00137039 
9963 1 -8.0913 6.41735 1.72091 1 0.00316607 
10368 1 -5.79251 6.94191 2.46415 1 0.00671041 
10369 1 -5.21218 7.8258 0.202162 1 0.0483815 
10371 1 -6.12894 5.52753 0.450597 1 0.0219617 
10373 1 -3.83516 6.05102 1.17749 1 0.142008 
10701 1 -1.58414 6.61134 1.86015 5 4.38405 
10984 2 0.581945 7.21536 2.52352 5 5.57348 
10989 2 2.13595 7.00358 0.735195 5 4.31993 
11034 2 4.20505 5.96493 1.96991 1 0.142689 
11037 2 6.47061 6.47913 1.24414 1 0.0256881 
11143 2 8.40766 5.57575 2.51984 1 0.00322393 
11164 2 10.7009 6.10963 1.77047 1 0.00119131 
11166 2 8.75245 7.00775 0.506095 1 0.00647766 
11373 2 13.0015 6.64236 1.01654 1 0.000368818 
11375 2 14.9498 5.75108 2.27665 1 6.51705e-05 
11391 2 15.3074 7.17469 0.261632 1 0.00011436 
11719 2 17.2592 6.28477 1.52088 1 1.91702e-05 
11721 2 19.5699 6.81811 0.765875 1 7.07564e-06 
12151 2 21.524 5.92917 2.02384 1 6.51814e-06 
12175 2 21.8811 7.35144 0.0114971 1 2.97736e-06 
12173 2 23.836 6.4626 1.26934 1 2.65557e-06 
12711 2 25.7917 5.57388 2.52672 1 2.94916e-06 
12712 2 26.1479 6.99602 0.515153 1 1.05133e-06 
1352 4 -67.9742 9.44476 2.48749 5 18.5856 
1353 4 -67.4408 10.3337 0.224637 5 12.3904 
1357 4 -66.0185 8.55582 1.23035 1 6.98008e-16 
1964 4 -63.7073 9.08918 1.98464 1 3.00008e-16 
1966 4 -61.7517 8.20025 0.727494 1 1.30501e-15 
2616 4 -60.8627 10.5115 0.476065 1 3.50137e-09 
2617 4 -59.4404 8.73361 1.48178 1 4.65834e-08 
2653 1 -57.1292 9.26688 2.23617 1 4.90316e-09 
3315 1 -54.2847 10.689 0.727767 1 2.52186e-09 
3317 1 -55.1736 8.37785 0.979136 1 2.29199e-09 
3319 1 -52.8624 8.9111 1.73355 1 2.09309e-09 
3983 1 -50.0179 10.3333 0.225121 1 5.18605e-09 
4014 1 -50.5512 9.44437 2.48797 1 5.7247e-09 
4016 1 -48.5956 8.55534 1.23093 1 5.88121e-09 
4679 1 -46.2845 9.08859 1.98538 1 7.83685e-09 
4683 1 -44.3289 8.19956 0.728344 1 1.14811e-08 
5344 1 -43.44 10.5108 0.47699 1 9.91228e-09 
5378 1 -42.0178 8.73285 1.4828 1 1.93591e-08 
5381 1 -39.7067 9.26612 2.23728 1 3.56227e-08 
6044 1 -37.7512 8.37703 0.980256 1 4.51517e-08 
6045 1 -36.8623 10.6882 0.728903 1 4.63003e-08 
6079 1 -35.4402 8.91031 1.73476 1 7.14516e-08 
6740 1 -33.1292 9.44365 2.48924 1 1.21792e-07 
6741 1 -32.5958 10.3324 0.226348 1 1.30973e-07 
6745 1 -31.1738 8.55456 1.23218 1 2.02223e-07 
7440 1 -28.863 9.08791 1.98668 1 3.14835e-07 
7442 1 -26.9077 8.19879 0.729617 1 7.17875e-07 
8102 1 -26.0186 10.5099 0.478123 1 8.12375e-07 
8103 1 -24.5971 8.73215 1.48408 1 1.2411e-06 
8139 1 -22.2864 9.26552 2.23849 1 1.67572e-06 
8781 1 -20.3317 8.37633 0.981093 1 8.94694e-06 
8779 1 -19.4417 10.6867 0.72906 1 1.1977e-05 
8783 1 -18.0214 8.90963 1.73517 1 1.54384e-05 
9375 1 -15.1755 10.3292 0.22425 1 0.000120437 
9406 1 -15.7108 9.44271 2.48906 1 2.52722e-05 
9408 1 -13.7579 8.55281 1.22994 1 0.000180035 
9922 1 -11.4491 9.08484 1.98181 1 0.000393964 
9926 1 -9.4935 8.19281 0.719502 1 0.00192571 
10333 1 -8.59994 10.4982 0.465774 1 0.00344244 
10367 1 -7.19166 8.72091 1.46645 1 0.0049029 
10370 1 -4.90349 9.25019 2.21511 1 0.0100354 
10664 1 -2.93611 8.37007 0.943505 5 0.745657 
10665 1 -2.05831 10.6844 0.713358 5 1.10186 
10699 1 -0.670593 8.99921 1.6042 5 4.89547 
11021 2 1.50085 9.70367 2.41374 5 9.66842 
11038 2 3.10347 9.16185 0.873463 5 4.25091 
11036 2 5.08518 8.26442 2.21519 1 0.046509 
11040 2 5.36384 9.69026 0.215622 1 0.0468596 
11147 2 7.34701 8.79764 1.49325 1 0.0124033 
11150 2 5.91965 10.5819 2.47819 1 0.0492601 
11167 2 9.63331 9.32167 0.751513 1 0.00351218 
11376 2 11.581 8.42482 2.01835 1 0.000733581 
11377 2 11.934 9.84697 0.00266578 1 0.00093867 
11379 2 13.8856 8.95451 1.2652 1 0.000228174 
11695 2 15.8347 8.06351 2.52608 1 4.34777e-05 
11720 2 18.1461 8.59617 1.77125 1 1.44652e-05 
11722 2 16.1941 9.48585 0.511659 1 7.75246e-05 
12155 2 20.458 9.12919 1.01701 1 5.06304e-06 
12157 2 22.4126 8.24041 2.27492 1 6.95828e-06 
12176 2 22.77 9.66244 0.263096 1 1.59609e-06 
12689 2 23.302 10.5514 2.52649 1 5.62266e-06 
12715 2 24.725 8.77372 1.52079 1 2.36208e-06 
1354 4 -67.0853 11.756 2.23607 5 12.3904 
1938 4 -65.1296 10.8671 0.978923 1 9.96015e-16 
1939 4 -64.2407 13.1783 0.727494 1 1.30501e-15 
1962 4 -62.8184 11.4004 1.73321 1 5.01808e-16 
2613 4 -60.5071 11.9338 2.48749 1 8.32675e-09 
2614 4 -59.9738 12.8227 0.224637 1 1.83945e-08 
2618 1 -58.5515 11.0448 1.23039 1 2.38682e-08 
3282 1 -57.6626 13.356 0.978996 1 1.26005e-08 
3313 1 -56.2403 11.5781 1.9848 1 5.92979e-09 
3979 1 -53.3958 13.0002 0.47638 1 7.96671e-09 
3980 1 -51.9735 11.2223 1.48217 1 5.62967e-09 
4012 1 -49.6623 11.7556 2.23658 1 1.97033e-08 
4676 1 -46.8178 13.1777 0.728191 1 6.42444e-09 
4678 1 -47.7067 10.8665 0.979545 1 1.0434e-08 
4680 1 -45.3956 11.3998 1.73402 1 1.28431e-08 
5345 1 -42.5511 12.8219 0.225611 1 1.19429e-08 
5374 1 -43.0845 11.9331 2.48848 1 1.72479e-08 
5376 1 -41.1289 11.044 1.23145 1 1.89766e-08 
6040 1 -40.24 13.3552 0.980094 1 1.98715e-08 
6041 1 -38.8178 11.5773 1.98593 1 3.76927e-08 
6709 1 -35.9734 12.9994 0.477536 1 5.29928e-08 
6739 1 -34.5513 11.2215 1.48338 1 8.31167e-08 
6742 1 -32.2403 11.7548 2.23785 1 1.23109e-07 
7406 1 -30.2849 10.8657 0.980786 1 1.88823e-07 
7407 1 -29.3958 13.1768 0.729342 1 2.03523e-07 
7438 1 -27.974 11.399 1.73523 1 2.4205e-07 
8099 1 -25.663 11.9323 2.48966 1 2.69864e-07 
8100 1 -25.1293 12.8208 0.226561 1 1.10924e-06 
8104 1 -23.7078 11.0431 1.23246 1 1.1681e-06 
8746 1 -22.8185 13.3538 0.98077 1 2.00141e-06 
8777 1 -21.3968 11.5762 1.98669 1 1.62135e-06 
9371 1 -18.5524 12.9968 0.476958 1 2.26773e-05 
9372 1 -17.1312 11.2194 1.48272 1 2.40553e-05 
9404 1 -14.8209 11.7518 2.23614 1 5.23948e-05 
9921 1 -12.8664 10.8608 0.976352 1 0.000302763 
9919 1 -11.9801 13.1694 0.723167 1 0.00056366 
9923 1 -10.5602 11.3924 1.72798 1 0.000719591 
10334 1 -7.7205 12.808 0.214481 1 0.00776366 
10363 1 -8.26048 11.9258 2.48065 1 0.0014832 
10365 1 -6.3085 11.0288 1.21448 1 0.00853119 
10660 1 -5.44793 13.3453 0.96982 1 0.0284029 
10661 1 -4.03979 11.563 1.97009 1 0.0159667 
10848 1 -1.29659 12.9613 0.516127 5 6.16823 
10876 1 0.238657 11.4355 1.43628 5 6.12262 
11025 2 2.44685 13.0671 2.19426 5 3.07456 
11039 2 3.86256 11.4194 1.20661 5 1.66757 
11151 2 6.22321 11.9796 0.474879 1 0.0127928 
11153 2 8.20967 11.1059 1.74553 1 0.00763473 
11350 2 9.09362 13.3996 2.00976 1 0.00237601 
11380 2 10.5144 11.6278 1.00257 1 0.00180718 
11378 2 12.4618 10.735 2.2683 1 0.000351022 
11382 2 12.8213 12.1553 0.25418 1 0.000547184 
11702 2 13.3486 13.0418 2.52242 1 0.000167853 
11699 2 14.7717 11.2644 1.51622 1 0.000120113 
11723 2 17.0825 11.7962 0.763595 1 4.08093e-05 
12158 2 19.0347 10.9069 2.02267 1 1.08366e-05 
12159 2 19.3937 12.3289 0.0106533 1 1.29906e-05 
12160 2 19.9244 13.2175 2.27494 1 9.49323e-06 
12161 2 21.3473 11.44 1.26889 1 3.32487e-06 
12718 2 23.6594 11.9734 0.515097 1 1.23158e-06 
12716 2 25.6145 11.0848 1.77252 1 1.99073e-06 
1350 4 -68.5076 13.5339 1.23035 5 30.976 
1934 4 -67.6186 15.8451 0.978923 5 18.5856 
1935 4 -66.1963 14.0672 1.98464 1 3.00005e-16 
2585 4 -63.3517 15.4895 0.476065 1 1.60401e-15 
2612 4 -61.9294 13.7116 1.48178 1 9.00006e-16 
2610 4 -61.0405 16.0229 1.23035 1 1.64943e-09 
2615 4 -59.6182 14.245 2.23607 1 3.57246e-08 
3283 1 -56.7737 15.6672 0.727615 1 3.55809e-09 
3311 1 -55.3514 13.8893 1.73343 1 5.45816e-09 
3976 1 -53.0402 14.4225 2.48784 1 5.55203e-09 
3977 1 -52.5069 15.3114 0.224975 1 5.90102e-09 
3981 1 -51.0846 13.5335 1.23078 1 7.18718e-09 
4646 1 -50.1957 15.8447 0.9794 1 5.82847e-09 
4674 1 -48.7734 14.0667 1.98521 1 7.84093e-09 
5341 1 -45.9289 15.4889 0.476831 1 1.19444e-08 
5342 1 -44.5067 13.711 1.48264 1 1.26426e-08 
5343 1 -43.6178 16.0221 1.23128 1 1.20344e-08 
5372 1 -42.1955 14.2442 2.2371 1 1.73118e-08 
6038 1 -39.3511 15.6664 0.728714 1 1.71058e-08 
6042 1 -37.9289 13.8885 1.73457 1 3.36968e-08 
6735 1 -35.6178 14.4217 2.48905 1 4.23964e-08 
6710 1 -35.0845 15.3106 0.226156 1 7.21106e-08 
6737 1 -33.6624 13.5327 1.23197 1 8.59144e-08 
7402 1 -32.7734 15.8438 0.980571 1 1.09908e-07 
7403 1 -31.3513 14.066 1.98641 1 1.19053e-07 
8071 1 -28.5069 15.4879 0.477907 1 3.08778e-07 
8096 1 -26.196 16.021 1.23225 1 5.24776e-07 
8098 1 -27.0849 13.71 1.48372 1 2.89187e-07 
8101 1 -24.7739 14.2432 2.23808 1 4.46686e-07 
8747 1 -21.9299 15.6646 0.729173 1 4.23645e-06 
8775 1 -20.5078 13.8867 1.73485 1 3.84848e-06 
9368 1 -18.1973 14.4196 2.48883 1 8.64186e-06 
9369 1 -17.6645 15.3073 0.225092 1 4.36197e-05 
9373 1 -16.2428 13.5291 1.23027 1 5.37602e-05 
9889 1 -15.357 15.8398 0.978254 1 0.000103069 
9917 1 -13.9349 14.0616 1.98349 1 0.000121279 
10330 1 -11.0978 15.48 0.470164 1 0.00088938 
10331 1 -9.68043 13.7025 1.47534 1 0.00134418 
10332 1 -8.80292 16.0137 1.22072 1 0.00193234 
10361 1 -7.39047 14.2406 2.23118 1 0.00330307 
10658 1 -4.55916 15.657 0.713836 1 0.0805678 
10662 1 -3.21079 13.8943 1.74515 1 0.118456 
10874 1 -0.993368 14.5028 2.49399 5 3.93681 
10849 1 0.63982 14.1899 0.819071 5 6.76023 
11042 2 2.89669 14.5652 0.166979 1 0.423022 
11125 2 3.47124 15.4679 2.43959 1 0.0634497 
11154 2 4.81959 13.706 1.48028 1 0.0257861 
11155 2 5.76194 16.0252 1.74051 1 0.0178952 
11156 2 7.14247 14.2694 0.741452 1 0.00582692 
11356 2 9.98701 15.7019 2.26916 1 0.00148982 
11381 2 11.403 13.931 1.25998 1 0.000843716 
11703 2 13.7107 14.4633 0.509443 1 0.000287053 
11705 2 15.6605 13.5736 1.76969 1 5.81436e-05 
12129 2 16.5496 15.8836 2.02359 1 3.05198e-05 
12162 2 17.9719 14.1064 1.01678 1 1.93135e-05 
12164 2 20.2832 14.6397 0.263436 1 7.34568e-06 
12696 2 20.8141 15.5286 2.52725 1 1.01563e-05 
12693 2 22.2369 13.751 1.52107 1 3.67228e-06 
12699 2 23.1261 16.0623 1.77299 1 4.04576e-06 
12719 2 24.5488 14.2846 0.767059 1 1.72518e-06 
1932 4 -66.7297 18.1563 0.727494 5 6.1952 
1936 4 -65.3074 16.3784 1.73321 1 4.00005e-16 
2583 4 -64.4185 18.6897 1.48178 1 1.00001e-15 
2586 4 -62.4628 17.8007 0.224637 1 1.20202e-15 
2608 4 -62.9962 16.9118 2.48749 1 1e-15 
3278 4 -60.1516 18.3341 0.978923 1 1.60083e-08 
3279 1 -58.7293 16.5562 1.98466 1 2.42774e-08 
3951 1 -55.8847 17.9784 0.47622 1 3.00621e-09 
3973 1 -53.5735 18.5116 1.23064 1 2.46514e-09 
3975 1 -54.4625 16.2005 1.48202 1 4.19996e-09 
3978 1 -52.1513 16.7337 2.23645 1 2.62216e-09 
4647 1 -49.3068 18.1558 0.728033 1 3.63655e-09 
4672 1 -47.8845 16.3779 1.73386 1 8.19707e-09 
5337 1 -46.9956 18.6891 1.48248 1 3.05166e-09 
5338 1 -45.5733 16.9112 2.48832 1 6.81422e-09 
5339 1 -45.04 17.8001 0.225455 1 6.83134e-09 
6011 1 -42.7289 18.3333 0.979912 1 8.49781e-09 
6036 1 -41.3066 16.5554 1.98574 1 1.46003e-08 
6706 1 -38.4622 17.9775 0.477332 1 4.23768e-08 
6707 1 -37.04 16.1996 1.48319 1 2.96069e-08 
6708 1 -36.1512 18.5108 1.23182 1 6.13944e-08 
6733 1 -34.7289 16.7329 2.23766 1 4.46514e-08 
7400 1 -31.8846 18.1549 0.729178 1 1.42263e-07 
7404 1 -30.4624 16.3771 1.73501 1 1.36775e-07 
8069 1 -29.5737 18.6882 1.48363 1 1.93729e-07 
8094 1 -28.1515 16.9103 2.48943 1 1.87203e-07 
8072 1 -27.6181 17.799 0.226511 1 5.38154e-07 
8742 1 -25.3075 18.3322 0.980875 1 9.61634e-07 
8743 1 -23.8853 16.5542 1.98659 1 9.44188e-07 
9343 1 -21.0421 17.9758 0.477808 1 8.371e-06 
9365 1 -18.7332 18.5091 1.23193 1 1.89107e-05 
9367 1 -19.6199 16.1976 1.48321 1 8.83798e-06 
9370 1 -17.3109 16.7307 2.23722 1 1.72888e-05 
9890 1 -14.4734 18.1519 0.726891 1 0.000213683 
9915 1 -13.0524 16.3728 1.73113 1 0.000224937 
10326 1 -12.1725 18.6856 1.47941 1 0.000564515 
10327 1 -10.752 16.9067 2.48406 1 0.000457022 
10328 1 -10.2203 17.7926 0.217433 1 0.00211247 
10631 1 -7.93551 18.3262 0.964728 1 0.0066866 
10656 1 -6.51595 16.5522 1.97225 1 0.00401999 
10845 1 -3.74913 17.9665 0.424284 1 0.446683 
10846 1 -2.29982 16.2134 1.47639 5 5.09848 
10847 1 -1.67525 18.5265 1.25628 5 5.61379 
10872 1 -0.147569 16.9264 2.4251 5 5.2003 
10943 1 0.503505 18.5712 0.833793 5 6.10495 
11026 2 1.60945 16.3807 1.02883 5 5.92882 
11129 2 2.64847 18.6859 1.47406 5 5.27259 
11157 2 3.85306 16.9058 0.428814 1 0.173447 
11354 2 8.04813 16.5827 1.00248 1 0.0052927 
11357 2 6.65522 18.3601 2.00125 1 0.0143151 
11384 2 10.3427 17.1265 0.255655 1 0.00149362 
11670 2 10.873 18.013 2.52457 1 0.000724063 
11706 2 12.2922 16.2387 1.51686 1 0.000480256 
11707 2 13.179 18.5494 1.77227 1 0.000225606 
11708 2 14.5997 16.7729 0.764846 1 0.000156934 
12135 2 17.4378 18.1948 2.27667 1 1.8602e-05 
12165 2 16.9088 17.3065 0.0120065 1 5.28901e-05 
12163 2 18.8609 16.4173 1.26984 1 1.17216e-05 
12700 2 19.749 18.7289 1.52193 1 6.30967e-06 
12697 2 21.172 16.951 0.515724 1 4.65852e-06 
13294 2 24.0147 18.3739 2.02444 1 3.53134e-06 
13330 2 25.4377 16.5961 1.01869 1 1.61433e-06 
1928 4 -67.7964 21.3565 1.73321 5 12.3904 
1930 4 -68.6853 19.0452 1.98464 5 37.1712 
2582 4 -65.8408 20.4675 0.476065 1 1.30401e-15 
2584 4 -63.5295 21.0009 1.23035 1 8.98007e-16 
2606 4 -62.1072 19.223 2.23607 1 4.01003e-16 
3276 4 -59.2626 20.6453 0.727494 1 6.04985e-08 
3280 1 -57.8404 18.8674 1.73328 1 5.12502e-09 
3949 1 -56.9514 21.1786 1.48189 1 5.51232e-09 
3952 1 -54.9958 20.2896 0.224841 1 2.67606e-09 
3971 1 -55.5292 19.4006 2.48768 1 1.1902e-09 
4642 1 -52.6846 20.8228 0.979264 1 1.72521e-09 
4643 1 -51.2624 19.0449 1.98507 1 2.85666e-09 
4644 1 -50.3734 21.3561 1.73369 1 4.87793e-09 
5316 1 -48.4178 20.467 0.476658 1 2.18597e-09 
5335 1 -46.1067 21.0003 1.2311 1 5.28391e-09 
5340 1 -44.6844 19.2224 2.23694 1 7.53277e-09 
6012 1 -41.84 20.6445 0.728536 1 1.32348e-08 
6034 1 -40.4178 18.8666 1.73438 1 1.43992e-08 
6702 1 -39.5289 21.1778 1.48299 1 2.61549e-08 
6703 1 -38.1066 19.3999 2.48884 1 2.54629e-08 
6704 1 -37.5733 20.2887 0.225956 1 5.01452e-08 
7377 1 -35.2623 20.822 0.980423 1 7.38817e-08 
7396 1 -32.9513 21.3552 1.73489 1 1.06634e-07 
7398 1 -33.8401 19.044 1.98626 1 7.28326e-08 
8068 1 -30.9958 20.4661 0.477812 1 1.90954e-07 
8070 1 -28.685 20.9994 1.23229 1 3.04392e-07 
8092 1 -27.2629 19.2214 2.23807 1 2.79696e-07 
8740 1 -24.4193 20.6435 0.729608 1 1.88741e-06 
8744 1 -22.9972 18.8654 1.73526 1 1.74181e-06 
9341 1 -22.1094 21.1769 1.48407 1 3.94507e-06 
9344 1 -20.1546 20.2875 0.22665 1 1.66028e-05 
9363 1 -20.6875 19.3988 2.48973 1 3.34536e-06 
9885 1 -17.8466 20.8211 0.980845 1 4.19395e-05 
9886 1 -16.4259 19.0428 1.98607 1 4.45554e-05 
9887 1 -15.5399 21.3552 1.73497 1 0.000104114 
10305 1 -13.5882 20.4651 0.47592 1 0.000407926 
10324 1 -11.2883 20.9992 1.22801 1 0.00110791 
10329 1 -9.87768 19.2199 2.23145 1 0.00150156 
10632 1 -7.04928 20.6429 0.709365 1 0.0128798 
10654 1 -5.66962 18.8655 1.70967 1 0.0248851 
10841 1 -4.77376 21.1783 1.43849 1 0.0460006 
10842 1 -3.44929 19.4306 2.4913 1 0.185415 
10843 1 -2.81523 20.3041 0.135912 1 0.501175 
10941 1 -0.580213 20.6846 0.762964 5 4.8171 
11132 2 1.13817 20.3545 2.40555 5 4.35227 
11134 2 3.31487 21.0673 1.71759 1 0.787128 
11158 2 4.7456 19.2778 0.713918 1 0.518208 
11359 2 7.51598 20.6822 2.26145 1 0.00391729 
11360 2 8.93302 18.9038 1.25828 1 0.00352496 
11674 2 9.81409 21.2177 1.51727 1 0.00138428 
11709 2 11.2304 19.4399 0.511913 1 0.000949253 
12133 2 15.4872 19.084 1.0188 1 7.77774e-05 
12136 2 14.0647 20.8613 2.02597 1 0.000102682 
12139 2 16.3733 21.3959 1.27059 1 3.27019e-05 
12166 2 17.7963 19.6179 0.264343 1 2.44407e-05 
12661 2 18.3251 20.5067 2.52833 1 1.47298e-05 
12701 2 20.6364 21.0407 1.77306 1 4.92037e-06 
12702 2 22.06 19.2627 0.767212 1 2.04222e-06 
13300 2 24.9031 20.6856 2.27557 1 3.21057e-06 
13333 2 24.3711 19.7964 0.0126524 1 7.23235e-07 
2578 4 -66.9075 23.6677 1.48178 5 6.1952 
2579 4 -65.4852 21.8898 2.48749 1 1.2e-15 
2580 4 -64.9518 22.7788 0.224637 1 1.20202e-15 
3255 4 -62.6406 23.3121 0.978923 1 9.9601e-16 
3274 4 -61.2183 21.5343 1.98464 1 2.38976e-09 
3272 4 -60.3294 23.8455 1.73321 1 1.64123e-08 
3948 1 -58.3737 22.9565 0.476114 1 1.38036e-08 
3950 1 -56.0625 23.4898 1.23051 1 1.16095e-09 
3969 1 -54.6402 21.7118 2.23629 1 5.31362e-09 
4638 1 -53.7513 24.023 1.98491 1 2.62439e-09 
4640 1 -51.7957 23.134 0.727872 1 6.26762e-09 
5314 1 -49.4845 23.6672 1.48231 1 4.47999e-09 
5317 1 -47.5289 22.7782 0.225279 1 6.79925e-09 
5333 1 -48.0623 21.8893 2.48813 1 7.22076e-09 
6007 1 -45.2178 23.3115 0.979711 1 6.46777e-09 
6008 1 -43.7955 21.5336 1.98555 1 6.50553e-09 
6009 1 -42.9066 23.8448 1.73416 1 1.34228e-08 
6684 1 -40.9511 22.9557 0.477139 1 2.04392e-08 
6700 1 -38.64 23.489 1.23161 1 3.89877e-08 
6705 1 -37.2178 21.711 2.23746 1 3.59339e-08 
7374 1 -36.329 24.0222 1.98611 1 6.11805e-08 
7378 1 -34.3735 23.1331 0.729074 1 9.01704e-08 
8064 1 -32.0626 23.6664 1.48353 1 1.37637e-07 
8065 1 -30.6404 21.8885 2.48936 1 1.6125e-07 
8066 1 -30.1071 22.7773 0.22647 1 2.80035e-07 
8719 1 -27.7965 23.3107 0.980995 1 5.16961e-07 
8736 1 -25.486 23.8441 1.73552 1 9.44364e-07 
8738 1 -26.3745 21.5327 1.9868 1 4.89208e-07 
9340 1 -23.5309 22.9549 0.478347 1 3.40682e-06 
9342 1 -21.2211 23.4884 1.23276 1 7.10949e-06 
9361 1 -19.8001 21.7106 2.23861 1 9.1027e-06 
9881 1 -18.9115 24.0221 1.98718 1 1.44633e-05 
9883 1 -16.958 23.1328 0.729361 1 6.51533e-05 
10303 1 -14.6504 23.6666 1.48302 1 0.000143487 
10306 1 -12.697 22.7769 0.224009 1 0.000540447 
10322 1 -13.2348 21.8897 2.48904 1 0.000250954 
10627 1 -10.3933 23.3098 0.974396 1 0.00137039 
10628 1 -8.99294 21.5333 1.97816 1 0.00272672 
10629 1 -8.0913 23.8405 1.72091 1 0.00316607 
10823 1 -6.12894 22.9506 0.450597 1 0.0219617 
10839 1 -3.83516 23.4741 1.17749 1 0.142008 
10844 1 -2.48934 21.6965 2.12784 1 0.200006 
10938 1 -1.58414 24.0345 1.86015 5 4.38405 
10942 1 1.04088 22.3469 0.652117 5 7.47634 
11322 2 4.20505 23.388 1.96991 1 0.142689 
11361 2 5.56976 21.5963 0.991222 1 0.0903484 
11362 2 6.47061 23.9022 1.24414 1 0.0256881 
11363 2 7.85958 22.1174 0.255244 1 0.0134485 
11677 2 8.40766 22.9989 2.51984 1 0.00322393 
11680 2 10.7009 23.5327 1.77047 1 0.00119131 
11710 2 12.1163 21.7522 0.766676 1 0.000512801 
12140 2 13.0015 24.0655 1.01654 1 0.000368818 
12137 2 14.4215 22.2858 0.0122432 1 0.000156687 
12138 2 14.9498 23.1742 2.27665 1 6.51705e-05 
12665 2 17.2592 23.7079 1.52088 1 1.91702e-05 
12703 2 18.6829 21.9297 0.515304 1 1.00909e-05 
13298 2 22.9478 21.5743 1.01825 1 2.00971e-06 
13301 2 21.524 23.3523 2.02384 1 6.51814e-06 
13304 2 23.836 23.8857 1.26934 1 2.65557e-06 
13334 2 25.2592 22.1079 0.263802 1 1.05427e-06 
13945 2 25.7917 22.997 2.52672 1 2.94916e-06 
2566 4 -68.3298 25.4456 0.476065 5 24.7808 
2576 4 -66.0185 25.9789 1.23035 1 8.98006e-16 
2581 4 -64.5962 24.2011 2.23607 1 5.01003e-16 
3252 4 -63.7073 26.5123 1.98464 1 2.00005e-16 
3256 4 -61.7517 25.6234 0.727494 1 1.10501e-15 
3944 4 -59.4404 26.1567 1.48178 1 4.65746e-08 
3945 1 -58.0182 24.3788 2.48756 1 5.8051e-09 
3946 1 -57.4848 25.2677 0.224724 1 4.22548e-09 
3947 1 -57.1292 26.69 2.23617 1 4.90313e-09 
4623 1 -55.1736 25.801 0.979136 1 2.29203e-09 
4636 1 -52.8624 26.3342 1.73355 1 2.09307e-09 
5313 1 -50.9068 25.4452 0.47651 1 5.19094e-09 
5315 1 -48.5956 25.9785 1.23093 1 5.88122e-09 
5331 1 -47.1734 24.2005 2.23674 1 5.34494e-09 
6003 1 -46.2845 26.5117 1.98538 1 7.83683e-09 
6005 1 -44.3289 25.6227 0.728344 1 1.14812e-08 
6682 1 -42.0178 26.156 1.4828 1 1.93591e-08 
6698 1 -40.5955 24.378 2.48863 1 2.62216e-08 
6685 1 -40.0622 25.2669 0.225779 1 2.95884e-08 
6696 1 -39.7067 26.6892 2.23728 1 3.56228e-08 
7373 1 -37.7512 25.8001 0.980256 1 4.51518e-08 
7375 1 -35.4402 26.3334 1.73476 1 7.14514e-08 
8049 1 -33.4847 25.4443 0.477728 1 1.11964e-07 
8062 1 -31.1738 25.9777 1.23218 1 2.02223e-07 
8067 1 -29.7518 24.1998 2.23805 1 2.50098e-07 
8716 1 -28.863 26.511 1.98668 1 3.14836e-07 
8720 1 -26.9077 25.6219 0.729617 1 7.17875e-07 
9336 1 -24.5971 26.1553 1.48408 1 1.2411e-06 
9337 1 -23.1757 24.3776 2.49005 1 1.82472e-06 
9338 1 -22.6419 25.2661 0.22688 1 4.7434e-06 
9339 1 -22.2864 26.6886 2.23849 1 1.67572e-06 
9866 1 -20.3317 25.7994 0.981093 1 8.94694e-06 
9879 1 -18.0214 26.3327 1.73517 1 1.54384e-05 
10302 1 -16.067 25.4432 0.477088 1 8.16836e-05 
10304 1 -13.7579 25.9759 1.22994 1 0.000180035 
10320 1 -12.3431 24.2002 2.23604 1 0.00028522 
10623 1 -11.4491 26.508 1.98181 1 0.000393964 
10625 1 -9.4935 25.6159 0.719502 1 0.00192571 
10821 1 -7.19166 26.144 1.46645 1 0.0049029 
10824 1 -5.21218 25.2489 0.202162 1 0.0483815 
10835 1 -4.90349 26.6733 2.21511 1 0.0100354 
10837 1 -5.79251 24.365 2.46415 1 0.00671041 
10937 1 -2.93611 25.7932 0.943505 5 0.745657 
10939 1 -0.670593 26.4223 1.6042 5 4.89547 
11135 2 0.581945 24.6385 2.52352 5 5.57348 
11136 2 2.13595 24.4267 0.735195 5 4.31993 
11326 2 3.10347 26.585 0.873463 5 4.25091 
11328 2 5.08518 25.6875 2.21519 1 0.046509 
11681 2 7.34701 26.2208 1.49325 1 0.0124033 
11678 2 8.75245 24.4309 0.506095 1 0.00647766 
11683 2 9.63331 26.7448 0.751513 1 0.00351218 
12097 2 11.581 25.8479 2.01835 1 0.000733581 
12141 2 13.8856 26.3776 1.2652 1 0.000228174 
12142 2 15.3074 24.5978 0.261632 1 0.00011436 
12668 2 15.8347 25.4866 2.52608 1 4.34777e-05 
12671 2 18.1461 26.0193 1.77125 1 1.44652e-05 
12704 2 19.5699 24.2412 0.765875 1 7.07564e-06 
13305 2 20.458 26.5523 1.01701 1 5.06304e-06 
13302 2 21.8811 24.7746 0.0114971 1 2.97736e-06 
13303 2 22.4126 25.6635 2.27492 1 6.95828e-06 
13949 2 24.725 26.1968 1.52079 1 2.36208e-06 
13989 2 26.1479 24.4191 0.515153 1 1.05133e-06 
2567 4 -67.4408 27.7568 0.224637 5 12.3904 
2572 4 -67.0853 29.1791 2.23607 5 12.3904 
2574 4 -67.9742 26.8679 2.48749 5 18.5856 
3251 4 -65.1296 28.2902 0.978923 1 9.96011e-16 
3253 4 -62.8184 28.8235 1.73321 1 3.00005e-16 
3932 4 -60.8627 27.9346 0.476065 1 3.50173e-09 
3940 4 -60.5071 29.3569 2.48749 1 8.327e-09 
3942 1 -58.5515 28.4679 1.23039 1 2.3866e-08 
4620 1 -56.2403 29.0012 1.9848 1 5.92993e-09 
4624 1 -54.2847 28.1122 0.727767 1 2.52191e-09 
5309 1 -51.9735 28.6454 1.48217 1 5.62966e-09 
5310 1 -50.5512 26.8675 2.48797 1 5.7247e-09 
5311 1 -50.0179 27.7564 0.225121 1 5.18603e-09 
5312 1 -49.6623 29.1787 2.23658 1 1.97033e-08 
5991 1 -47.7067 28.2896 0.979545 1 1.0434e-08 
6001 1 -45.3956 28.8229 1.73402 1 1.28431e-08 
6681 1 -43.44 27.9339 0.47699 1 9.91226e-09 
6678 1 -43.0845 29.3562 2.48848 1 1.7248e-08 
6683 1 -41.1289 28.4671 1.23145 1 1.89766e-08 
7369 1 -38.8178 29.0004 1.98593 1 3.76927e-08 
7371 1 -36.8623 28.1113 0.728903 1 4.63004e-08 
8047 1 -34.5513 28.6446 1.48338 1 8.31167e-08 
8060 1 -33.1292 26.8668 2.48924 1 1.21792e-07 
8050 1 -32.5958 27.7556 0.226348 1 1.30973e-07 
8058 1 -32.2403 29.1779 2.23785 1 1.23109e-07 
8715 1 -30.2849 28.2889 0.980786 1 1.88823e-07 
8717 1 -27.974 28.8221 1.73523 1 2.4205e-07 
9324 1 -26.0186 27.933 0.478123 1 8.12375e-07 
9332 1 -25.663 29.3554 2.48966 1 2.69864e-07 
9334 1 -23.7078 28.4662 1.23246 1 1.1681e-06 
9863 1 -21.3968 28.9993 1.98669 1 1.62135e-06 
9867 1 -19.4417 28.1098 0.72906 1 1.1977e-05 
10298 1 -17.1312 28.6425 1.48272 1 2.40553e-05 
10299 1 -15.7108 26.8658 2.48906 1 2.52722e-05 
10300 1 -15.1755 27.7523 0.22425 1 0.000120437 
10301 1 -14.8209 29.1749 2.23614 1 5.23948e-05 
10611 1 -12.8664 28.2839 0.976352 1 0.000302763 