ITEM: TIMESTEP
0
ITEM: NUMBER OF ATOMS
22568
ITEM: BOX BOUNDS ss pp pp
-61.7964 124.358
0 33.3937
0 39.5119
ITEM: ATOMS id type x y z c_cna c_csd 
4 4 -61.2013 1.00313 1.8759 5 18.5856 
47 4 -59.4163 1.74521 0.307971 1 1.19943e-15 
44 4 -58.8213 0.446573 2.34628 1 5.99762e-16 
48 4 -57.0364 1.18865 0.778351 1 1.40288e-15 
218 4 -54.6564 0.632093 1.24873 1 7.96185e-10 
455 1 -51.6815 2.48732 1.56235 1 3.96455e-09 
1827 1 -52.2765 0.0755409 1.71914 1 4.50175e-09 
456 1 -50.4915 0.81766 0.151239 1 5.44406e-09 
458 1 -49.3015 1.93083 2.03276 1 4.32006e-09 
838 1 -46.9216 1.37438 2.50318 1 1.72846e-09 
2340 1 -48.1116 0.261187 0.621665 1 6.57707e-09 
839 1 -45.1366 2.11654 0.935272 1 4.95794e-09 
1272 1 -42.7566 1.56012 1.40568 1 4.26387e-09 
1311 1 -40.3767 1.00369 1.87607 1 4.06527e-09 
1796 1 -38.5917 1.74588 0.308171 1 1.94133e-09 
1793 1 -37.9967 0.44727 2.34648 1 9.69927e-09 
1797 1 -36.2118 1.18948 0.77859 1 4.16057e-09 
2315 1 -33.8318 0.633115 1.24903 1 8.06601e-09 
2793 1 -30.8568 2.48856 1.56271 1 1.19627e-08 
4347 1 -31.4518 0.0767396 1.7195 1 5.42435e-09 
2794 1 -29.6669 0.818947 0.151647 1 5.02506e-09 
2796 1 -28.4769 1.93215 2.03318 1 2.99501e-08 
3315 1 -26.0969 1.37578 2.50368 1 6.62331e-08 
4860 1 -27.2868 0.26256 0.62214 1 2.57372e-08 
3316 1 -24.3119 2.11799 0.935799 1 1.27463e-07 
3792 1 -21.932 1.5616 1.4063 1 3.52607e-07 
3831 1 -19.5521 1.00526 1.87679 1 1.28164e-06 
4313 1 -17.1725 0.448922 2.34727 1 5.85995e-06 
4316 1 -17.7671 1.7474 0.308567 1 1.90117e-06 
4317 1 -15.3876 1.19096 0.77884 1 5.54482e-06 
4835 1 -13.0088 0.634305 1.24915 1 2.19206e-05 
6798 1 -10.6309 0.0774732 1.7193 1 0.000179242 
5313 1 -10.0384 2.48999 1.56796 1 0.000756317 
5314 1 -8.84136 0.819918 0.156318 1 0.00444844 
5316 1 -7.66334 1.93052 2.04815 1 0.00733923 
5835 1 -5.27315 1.38245 2.53327 1 0.0802267 
7144 1 -6.45415 0.255308 0.641683 1 0.0432766 
5836 1 -3.61869 2.13705 0.883437 5 1.96011 
6312 1 -1.4951 1.44259 1.3789 5 8.78137 
8415 2 0.737965 1.83501 0.82454 1 0.472683 
8463 2 3.04398 2.20167 0.263064 1 0.0693624 
8938 2 4.75561 2.01053 2.0255 1 0.0123274 
8937 2 5.95785 0.342868 0.609552 1 0.00474288 
8941 2 7.14732 2.38044 1.39256 1 0.00154324 
9409 2 7.74072 0.150419 2.32903 1 0.000504507 
9412 2 10.1224 0.522815 1.70043 1 9.37649e-05 
9460 2 11.3121 2.56369 2.48373 1 5.42974e-05 
9933 2 12.5022 0.894544 1.07145 1 1.47478e-05 
9936 2 14.882 1.26588 0.443364 1 3.0885e-06 
10410 2 16.6668 1.08049 2.16798 1 6.69102e-07 
10458 2 19.0468 1.45165 1.54062 1 3.07025e-07 
10931 2 21.4268 1.82282 0.913421 1 1.12626e-07 
10980 2 23.8067 2.19401 0.286275 1 3.83398e-08 
11458 2 25.5917 2.00856 2.01101 1 1.92108e-08 
11457 2 26.7816 0.338924 0.59989 1 1.84849e-08 
11461 2 27.9716 2.37965 1.38389 1 2.31315e-08 
11929 2 28.5666 0.153414 2.32465 1 2.09207e-08 
11932 2 30.9465 0.524381 1.69756 1 4.14232e-09 
18 4 -60.6063 3.4149 1.71911 5 12.3904 
21 4 -58.8213 4.15698 0.151178 1 9.97324e-16 
45 4 -58.2263 2.85834 2.18949 1 1.00004e-15 
174 4 -55.2514 4.71354 2.50308 1 1.40008e-15 
176 4 -56.4414 3.60042 0.621557 1 6.01523e-16 
177 4 -54.0614 3.04386 1.09194 1 1.9595e-09 
412 1 -51.0865 4.8991 1.40555 1 3.25115e-09 
793 1 -48.7065 4.34262 1.87597 1 1.86488e-09 
794 1 -47.5165 2.67298 0.464864 1 3.27863e-09 
795 1 -46.9216 5.08478 0.30805 1 2.3619e-09 
796 1 -46.3266 3.78618 2.34638 1 1.53022e-09 
1227 1 -44.5416 4.52834 0.778458 1 1.68031e-09 
1273 1 -42.1617 3.97192 1.24887 1 1.47813e-09 
1748 1 -39.7817 3.4155 1.71928 1 2.15277e-09 
1751 1 -37.9967 4.15769 0.151386 1 3.65295e-09 
1794 1 -37.4017 2.85908 2.1897 1 7.08976e-09 
2271 1 -34.4268 4.71452 2.50338 1 1.94513e-09 
2273 1 -35.6168 3.6013 0.621816 1 2.79778e-09 
2274 1 -33.2368 3.04494 1.09226 1 5.64568e-09 
2750 1 -30.2619 4.90035 1.40596 1 4.45e-09 
3270 1 -27.8819 4.34395 1.87643 1 1.28899e-08 
3271 1 -26.6919 2.67436 0.465304 1 5.98932e-08 
3272 1 -26.097 5.08614 0.308555 1 2.91e-08 
3273 1 -25.502 3.78756 2.34694 1 3.88705e-08 
3747 1 -23.717 4.52973 0.779044 1 7.58073e-08 
3793 1 -21.3372 3.97333 1.24957 1 2.35348e-07 
4268 1 -18.9577 3.41692 1.72015 1 8.88814e-07 
4271 1 -17.1728 4.15897 0.152183 1 2.0171e-06 
4314 1 -16.5785 2.86048 2.19083 1 3.69756e-06 
4791 1 -13.6048 4.71577 2.50621 1 5.19593e-05 
4793 1 -14.7938 3.6025 0.623022 1 1.14828e-05 
4794 1 -12.4158 3.04598 1.09467 1 8.44277e-05 
5270 1 -9.44902 4.90274 1.40925 1 0.00210712 
5790 1 -7.08659 4.34647 1.88301 1 0.016677 
5791 1 -5.93744 2.67553 0.465938 1 0.082181 
5792 1 -5.25748 5.05899 0.324517 1 0.246743 
5793 1 -4.72215 3.79904 2.324 1 0.392786 
6267 1 -2.48319 4.35115 0.636848 5 7.70703 
6313 1 -0.399039 3.53962 2.16049 5 5.97322 
8464 2 1.87493 3.87848 1.65561 1 0.303859 
8467 2 4.20586 4.23965 1.06682 1 0.0344934 
8987 2 6.56634 4.60962 0.444726 1 0.00424112 
8989 2 8.33876 4.41972 2.17069 1 0.000239808 
9458 2 9.53019 2.75072 0.76119 1 0.000206374 
9459 2 10.72 4.79115 1.542 1 5.43049e-05 
9461 2 11.9096 3.12139 0.131283 1 2.83942e-05 
9934 2 13.6926 2.93542 1.8553 1 9.1826e-06 
9985 2 16.0725 3.30671 1.22742 1 1.59903e-06 
10457 2 18.4522 3.67789 0.59994 1 3.27469e-07 
10462 2 20.2369 3.49244 2.32467 1 1.9232e-07 
10981 2 22.6168 3.86362 1.69744 1 5.56631e-08 
10984 2 24.9967 4.23479 1.07027 1 2.67661e-08 
11507 2 27.3767 4.60589 0.44313 1 2.56358e-08 
11509 2 29.1616 4.42035 2.16791 1 7.64854e-09 
11978 2 30.3516 2.75064 0.756799 1 2.2359e-09 
19 4 -60.0113 5.82666 1.56232 5 6.1952 
129 4 -57.6314 5.2701 2.0327 1 7.99401e-16 
130 4 -57.0364 7.68186 1.8759 1 1.69916e-15 
133 4 -55.8464 6.01218 0.464764 1 8.99963e-16 
363 4 -54.6564 7.1253 2.34628 1 2.82295e-10 
411 4 -53.4664 5.45562 0.935144 1 3.78702e-09 
748 1 -50.4915 7.31086 1.24875 1 9.27995e-09 
750 1 -48.1115 6.7544 1.71917 1 4.30708e-09 
1181 1 -46.3266 7.49658 0.151259 1 2.06296e-09 
1226 1 -45.7316 6.19797 2.18958 1 1.5184e-09 
1228 1 -43.9466 6.94014 0.621656 1 3.03609e-09 
1704 1 -41.5667 6.38371 1.09207 1 2.52015e-09 
1749 1 -39.1867 5.82729 1.5625 1 3.11263e-09 
2224 1 -36.8068 5.27089 2.03293 1 2.83991e-09 
2225 1 -36.2118 7.6827 1.87617 1 2.84196e-09 
2228 1 -35.0218 6.01312 0.46505 1 1.24601e-09 
2701 1 -33.8318 7.12633 2.34662 1 2.34866e-09 
2749 1 -32.6418 5.45675 0.935494 1 7.84707e-09 
3225 1 -29.6669 7.31213 1.24923 1 7.69601e-09 
3227 1 -27.287 6.75573 1.71972 1 1.96253e-08 
3701 1 -25.502 7.49792 0.151883 1 2.91182e-08 
3746 1 -24.9071 6.19932 2.19023 1 6.72462e-08 
3748 1 -23.1222 6.94148 0.622395 1 1.22233e-07 
4224 1 -20.7424 6.38504 1.09297 1 5.44076e-07 
4269 1 -18.3629 5.8286 1.56368 1 2.41008e-06 
4744 1 -15.9836 5.27216 2.03466 1 1.07738e-05 
4745 1 -15.388 7.68389 1.87743 1 1.473e-05 
4748 1 -14.1998 6.01402 0.466719 1 4.59826e-05 
5221 1 -13.0084 7.12755 2.34784 1 7.04826e-05 
5269 1 -11.8229 5.45761 0.938001 1 0.000302622 
5745 1 -8.83652 7.31079 1.24813 1 0.000869128 
5747 1 -6.45058 6.75226 1.71486 1 0.0119263 
6221 1 -4.65646 7.51412 0.186899 1 0.0963164 
6266 1 -4.03019 6.15631 2.12683 1 0.26312 
6268 1 -2.16402 6.94384 0.672836 5 4.16443 
6269 1 -1.67847 5.65385 2.61694 5 2.76967 
6738 3 1.05632 6.1092 0.807024 5 4.72566 
8465 2 2.99769 5.90532 2.47882 1 0.0878457 
8514 2 3.53887 6.4486 0.141569 1 0.027878 
8516 2 5.36535 6.27777 1.8548 1 0.00669738 
8988 2 7.74379 6.64791 1.22631 1 0.000713929 
9037 2 10.124 7.01825 0.599392 1 0.000107468 
9509 2 13.0994 5.1622 0.914047 1 1.61312e-05 
9510 2 11.9089 6.83202 2.32351 1 2.47153e-05 
9513 2 14.2886 7.20305 1.69702 1 8.90868e-06 
9984 2 15.4786 5.5332 0.286467 1 4.87546e-06 
9989 2 17.2626 5.34759 2.01119 1 8.79019e-07 
10034 2 16.6681 7.57403 1.07012 1 3.05197e-06 
10507 2 19.6424 5.71871 1.3839 1 2.21981e-07 
10510 2 22.0221 6.08986 0.756669 1 5.54881e-08 
10982 2 23.8069 5.90442 2.48143 1 2.95074e-08 
11031 2 24.4019 6.46102 0.129482 1 2.01608e-08 
11033 2 26.1867 6.27556 1.85425 1 2.3716e-08 
11508 2 28.5666 6.64661 1.22714 1 1.12162e-08 
11557 2 30.9465 7.01758 0.600052 1 6.0671e-09 
6 4 -61.7963 8.79499 0.935144 5 37.1712 
95 4 -59.4163 8.23843 1.40552 1 1.1002e-15 
318 4 -56.4414 10.0936 1.71911 1 1.10008e-15 
364 4 -54.0614 9.53707 2.18949 1 3.65242e-10 
366 4 -55.2514 8.42395 0.307971 1 1.09812e-15 
367 4 -52.8714 7.86738 0.778351 1 4.23056e-09 
704 1 -49.8965 9.72264 1.09198 1 1.15707e-08 
1180 1 -47.5165 9.1662 1.56238 1 2.30166e-09 
1183 1 -45.1366 8.60977 2.0328 1 3.46482e-09 
1658 1 -43.3516 9.35194 0.464868 1 3.08571e-09 
1703 1 -42.7566 8.05332 2.5032 1 2.23595e-09 
1705 1 -40.9717 8.79549 0.935292 1 4.7276e-09 
2179 1 -38.5917 8.23909 1.40573 1 3.61554e-09 
2656 1 -35.6168 10.0945 1.7194 1 2.83194e-09 
2704 1 -34.4268 8.42493 0.30829 1 3.1724e-09 
2702 1 -33.2369 9.53813 2.18987 1 8.64835e-09 
2705 1 -32.0469 7.86855 0.778748 1 4.16894e-09 
3181 1 -29.072 9.72393 1.09251 1 2.01761e-08 
3700 1 -26.692 9.16752 1.56304 1 4.33605e-08 
3703 1 -24.3121 8.61109 2.03355 1 1.21356e-07 
4178 1 -22.5272 9.35327 0.465735 1 3.33773e-07 
4223 1 -21.9322 8.05467 2.50408 1 3.50437e-07 
4225 1 -20.1474 8.79684 0.936285 1 1.1098e-06 
4699 1 -17.7676 8.24036 1.40687 1 3.85253e-06 
5176 1 -14.7903 10.0958 1.71981 1 1.53906e-05 
5224 1 -13.6022 8.42547 0.310101 1 4.69161e-05 
5222 1 -12.4078 9.53919 2.1888 1 9.52489e-05 
5225 1 -11.2209 7.86813 0.780319 1 0.000215513 
5701 1 -8.22078 9.72755 1.09632 1 0.00821801 
6220 1 -5.80798 9.18068 1.57829 1 0.0689557 
6223 1 -3.3274 8.61456 2.03855 5 4.46053 
6693 1 -1.66607 9.30071 0.277336 5 4.5707 
6695 1 -0.760654 10.1819 2.21845 5 7.34306 
6737 3 -0.280473 7.78889 2.231 5 7.84031 
8095 2 2.31582 8.09572 1.52108 1 0.150361 
8099 2 3.59695 10.1631 2.29612 1 0.092 
8515 2 4.74474 8.48527 0.908844 1 0.0091558 
8520 2 6.54531 8.31669 2.63225 1 0.00146565 
8565 2 7.138 8.86744 0.282074 1 0.000928523 
9038 2 8.92943 8.68753 2.00703 1 0.000181649 
9041 2 11.3113 9.0585 1.38175 1 2.43337e-05 
9559 2 13.6921 9.42936 0.755757 1 4.01833e-06 
9561 2 15.4777 9.24376 2.48064 1 3.40291e-06 
9562 2 16.0723 9.80028 0.129156 1 1.10509e-06 
10035 2 17.8575 9.61475 1.85393 1 1.08628e-06 
10037 2 19.0477 7.94503 0.443018 1 9.65364e-07 
10086 2 20.2373 9.9858 1.22694 1 3.61966e-07 
10508 2 20.8323 7.75952 2.1678 1 2.25625e-07 
10558 2 23.2121 8.13067 1.54062 1 6.83808e-08 
10562 2 24.4019 10.1715 2.32458 1 4.90085e-08 
11032 2 25.5919 8.50181 0.913463 1 3.07992e-08 
11082 2 27.9717 8.87287 0.286346 1 1.59808e-08 
11558 2 29.7566 8.68731 2.01114 1 6.9225e-09 
74 4 -61.2013 11.2067 0.778351 5 18.5856 
96 4 -58.8213 10.6502 1.24873 1 8.97966e-16 
319 4 -55.8464 12.5054 1.56232 1 9.01242e-16 
321 4 -54.6564 10.8357 0.151178 1 1.04562e-10 
654 4 -53.4664 11.9488 2.0327 1 2.62647e-09 
658 1 -51.6815 12.6909 0.46479 1 4.78135e-09 
703 1 -52.2765 10.2792 0.621567 1 6.06904e-09 
701 1 -51.0865 11.3923 2.5031 1 1.12335e-08 
1136 1 -49.3015 12.1344 0.935223 1 8.4432e-09 
1137 1 -46.9216 11.578 1.40563 1 5.32521e-09 
1657 1 -44.5416 11.0216 1.87601 1 2.88429e-09 
1659 1 -42.7567 11.7637 0.308094 1 2.66438e-09 
1660 1 -42.1617 10.4651 2.34641 1 4.40844e-09 
2134 1 -40.3767 11.2073 0.778515 1 4.00249e-09 
2180 1 -37.9968 10.6509 1.24895 1 4.30148e-09 
2657 1 -35.0218 12.5063 1.56262 1 2.0806e-09 
2659 1 -33.8318 10.8367 0.151521 1 2.84935e-09 
3131 1 -32.6419 11.9499 2.03309 1 4.62953e-09 
3135 1 -30.8569 12.6921 0.465242 1 6.09481e-09 
3180 1 -31.4519 10.2803 0.622003 1 7.09121e-09 
3178 1 -30.2619 11.3935 2.50358 1 7.97733e-09 
3656 1 -28.4769 12.1357 0.935752 1 1.60976e-08 
3657 1 -26.097 11.5793 1.40629 1 4.9769e-08 
4177 1 -23.717 11.0229 1.87678 1 1.09779e-07 
4179 1 -21.932 11.7652 0.309018 1 2.65337e-07 
4180 1 -21.337 10.4665 2.34721 1 2.78904e-07 
4654 1 -19.5519 11.2088 0.779483 1 7.78974e-07 
4700 1 -17.1714 10.6523 1.24984 1 3.11363e-06 
5177 1 -14.1929 12.5081 1.56327 1 0.000106952 
5179 1 -13.0033 10.8386 0.153894 1 0.000157178 
5651 1 -11.8079 11.9518 2.03352 1 0.000700199 
5700 1 -10.6168 10.2826 0.625047 1 0.00113055 
5655 1 -10.0305 12.6956 0.461005 1 0.00124088 
5698 1 -9.41726 11.3951 2.50467 1 0.00490657 
6176 1 -7.65549 12.1382 0.921854 1 0.00972293 
6177 1 -5.30191 11.5801 1.37391 1 0.0827541 
6692 1 -2.99365 10.983 1.78748 1 0.814958 
6694 1 -1.13054 11.812 0.458165 5 3.80603 
7789 3 0.605452 12.1365 2.09172 5 2.24094 
8094 2 1.65189 10.3489 0.640969 5 1.3095 
8144 2 2.9525 12.3841 1.37163 1 0.0713786 
8147 2 5.35742 12.7607 0.757741 1 0.00474511 
8566 2 5.95802 10.5345 1.68368 1 0.00555544 
8567 2 7.15412 12.5797 2.47678 1 0.00132078 
8569 2 8.33412 10.9107 1.06315 1 0.000611731 
9087 2 10.7146 11.2836 0.439716 1 7.64152e-05 
9089 2 12.5009 11.0989 2.16591 1 2.01013e-05 
9560 2 14.8815 11.4699 1.53971 1 3.46993e-06 
9610 2 17.2618 11.8409 0.913069 1 6.26765e-07 
10085 2 19.6419 12.212 0.286148 1 1.4307e-07 
10090 2 21.427 12.0265 2.01087 1 1.13271e-07 
10557 2 22.6171 10.3569 0.599812 1 1.04658e-07 
10607 2 23.8069 12.3977 1.38379 1 3.90505e-08 
10610 2 26.1867 12.7688 0.756675 1 1.96348e-08 
11083 2 26.7818 10.5426 1.69746 1 2.5353e-08 
11084 2 27.9717 12.5833 2.48143 1 1.69705e-08 
11086 2 29.1616 10.9136 1.07035 1 8.62795e-09 
67 4 -61.7963 15.2882 2.0327 5 37.1712 
75 4 -60.6063 13.6185 0.621557 5 6.1952 
277 4 -59.4163 14.7316 2.50308 1 1.50008e-15 
278 4 -58.2263 13.062 1.09194 1 1.09932e-15 
609 4 -55.2514 14.9172 1.40552 1 9.00603e-16 
655 4 -52.8714 14.3606 1.8759 1 1.21365e-08 
1088 1 -50.4915 13.8041 2.34635 1 1.18098e-08 
1091 1 -51.0865 15.1027 0.308018 1 6.72934e-09 
1092 1 -48.7065 14.5462 0.778446 1 7.18924e-09 
1612 1 -46.3266 13.9898 1.24885 1 2.20028e-09 
1614 1 -43.9466 13.4334 1.71924 1 5.27982e-09 
2088 1 -42.1617 14.1755 0.15133 1 1.62823e-09 
2133 1 -41.5667 12.8769 2.18963 1 3.84464e-09 
2090 1 -40.9717 15.2887 2.03286 1 5.55576e-09 
2135 1 -39.7817 13.6191 0.621739 1 4.83084e-09 
2611 1 -38.5917 14.7323 2.50326 1 7.6147e-09 
2612 1 -37.4018 13.0627 1.09216 1 3.19577e-09 
3086 1 -34.4268 14.9181 1.40582 1 2.59126e-09 
3132 1 -32.0468 14.3617 1.8763 1 2.55717e-09 
3608 1 -29.6669 13.8054 2.34679 1 5.02515e-09 
3611 1 -30.2619 15.104 0.308446 1 3.42136e-09 
3612 1 -27.8819 14.5476 0.778962 1 1.16244e-08 
4132 1 -25.5019 13.9912 1.24948 1 3.34155e-08 
4134 1 -23.1218 13.4348 1.71997 1 1.32786e-07 
4608 1 -21.3367 14.1771 0.152201 1 5.33644e-07 
4653 1 -20.7415 12.8784 2.19034 1 5.86223e-07 
4610 1 -20.1464 15.2902 2.03357 1 1.87404e-06 
4655 1 -18.9562 13.6208 0.622647 1 2.98011e-06 
5131 1 -17.7658 14.7339 2.50394 1 8.78921e-06 
5132 1 -16.5752 13.0644 1.09301 1 1.74724e-05 
5606 1 -13.6019 14.9202 1.40546 1 8.52869e-05 
5652 1 -11.224 14.3642 1.87458 1 0.000606944 
6128 1 -8.85261 13.8077 2.34204 1 0.00488539 
6131 1 -9.43464 15.1052 0.303083 1 0.000773449 
6132 1 -7.05566 14.5434 0.766752 1 0.00642563 
6647 1 -4.6832 13.9863 1.238 1 0.0691626 
6649 1 -2.32135 13.4542 1.79936 5 2.64585 
7059 3 -0.141523 14.1649 0.930633 5 2.59949 
7829 2 2.36142 14.6096 0.456805 1 0.123327 
8145 2 4.16509 14.4328 2.16336 1 0.00818111 
8195 2 6.55176 14.806 1.54198 1 0.000930045 
8616 2 7.73815 13.1376 0.126758 1 0.000408091 
8617 2 8.93187 15.1789 0.914321 1 0.000127833 
8618 2 9.52771 12.9526 1.85141 1 0.000132805 
9088 2 11.906 13.3245 1.22539 1 2.02064e-05 
9138 2 13.0967 15.3653 2.01103 1 4.06798e-06 
9137 2 14.286 13.6958 0.599019 1 4.06357e-06 
9611 2 16.0715 13.5105 2.32407 1 1.82636e-06 
9614 2 18.4517 13.8816 1.69714 1 4.29628e-07 
10135 2 20.8317 14.2527 1.07012 1 1.00802e-07 
10138 2 23.2117 14.6239 0.443039 1 3.86249e-08 
10608 2 24.9968 14.4384 2.16777 1 1.74181e-08 
10658 2 27.3767 14.8095 1.54066 1 1.50458e-08 
11133 2 28.5666 13.1398 0.129552 1 1.43684e-08 
11134 2 29.7566 15.1805 0.913547 1 1.21323e-08 
11135 2 30.3516 12.9543 1.85433 1 5.54244e-09 
248 4 -61.2013 17.7 1.8759 5 18.5856 
249 4 -60.0113 16.0303 0.464764 5 6.1952 
251 4 -58.8213 17.1434 2.34628 1 1.10008e-15 
279 4 -57.6314 15.4737 0.935144 1 1.10252e-15 
565 4 -57.0364 17.8855 0.778351 1 1.70204e-15 
610 4 -54.6564 17.3289 1.24873 1 7.95812e-10 
1043 1 -52.2765 16.7724 1.71914 1 4.50322e-09 
1046 1 -50.4915 17.5145 0.151239 1 5.44362e-09 
1089 1 -49.8965 16.2159 2.18956 1 6.37756e-09 
1567 1 -48.1116 16.958 0.621665 1 6.57701e-09 
1568 1 -45.7316 16.4016 1.09208 1 7.14577e-09 
2087 1 -43.3517 15.8452 1.56247 1 8.9609e-09 
2565 1 -40.3767 17.7005 1.87607 1 4.06528e-09 
2566 1 -39.1867 16.0309 0.46496 1 2.4991e-09 
2568 1 -37.9967 17.1441 2.34648 1 9.69926e-09 
2613 1 -36.8068 15.4745 0.935373 1 5.77693e-09 
3041 1 -36.2118 17.8863 0.77859 1 4.16059e-09 
3087 1 -33.8318 17.3299 1.24903 1 8.066e-09 
3563 1 -31.4518 16.7736 1.7195 1 5.42438e-09 
3566 1 -29.6669 17.5158 0.151647 1 5.02505e-09 
3609 1 -29.0718 16.2172 2.18998 1 1.07077e-08 
4087 1 -27.2868 16.9594 0.62214 1 2.57372e-08 
4088 1 -24.9068 16.403 1.09264 1 1.10562e-07 
4607 1 -22.5267 15.8466 1.56314 1 4.67238e-07 
5085 1 -19.5521 17.7021 1.87679 1 1.28164e-06 
5086 1 -18.3615 16.0326 0.465494 1 3.76081e-06 
5088 1 -17.1725 17.1457 2.34727 1 5.85995e-06 
5133 1 -15.9815 15.4764 0.935618 1 1.61669e-05 
5561 1 -15.3876 17.8878 0.77884 1 5.54482e-06 
5607 1 -13.0088 17.3311 1.24915 1 2.19206e-05 
6083 1 -10.6309 16.7743 1.7193 1 0.000179242 
6086 1 -8.84136 17.5167 0.156318 1 0.00444844 
6129 1 -8.25613 16.2146 2.18974 1 0.00140837 
6602 1 -6.45415 16.9521 0.641683 1 0.0432766 
6603 1 -4.02446 16.4023 1.16074 5 0.775819 
7058 1 -1.35671 15.8613 2.23964 5 4.39247 
7060 1 -0.411175 16.3961 0.0453981 2 6.34494 
7827 2 1.1483 16.2891 1.8472 1 0.248895 
7876 2 3.56432 16.6672 1.23777 1 0.0301915 
8194 2 5.95785 17.0397 0.609552 1 0.00474288 
8199 2 7.74072 16.8472 2.32903 1 0.000504507 
8668 2 10.1224 17.2196 1.70043 1 9.37649e-05 
8667 2 11.3112 15.5507 0.28617 1 2.6086e-05 
8671 2 12.5022 17.5914 1.07145 1 1.47478e-05 
9141 2 15.4764 15.7365 1.38364 1 1.48665e-06 
9185 2 14.882 17.9627 0.443364 1 3.0885e-06 
9187 2 16.6668 17.7773 2.16798 1 6.69102e-07 
9660 2 17.8565 16.1077 0.756489 1 6.79967e-07 
9662 2 19.6417 15.9223 2.48123 1 3.13022e-07 
9663 2 20.2366 16.4789 0.129392 1 2.35265e-07 
10136 2 22.0217 16.2935 1.85413 1 9.22646e-08 
10186 2 24.4017 16.6646 1.22702 1 2.88925e-08 
10657 2 26.7816 17.0357 0.59989 1 1.84848e-08 
10662 2 28.5666 16.8502 2.32465 1 2.09207e-08 
11185 2 30.9465 17.2212 1.69756 1 4.14232e-09 
234 4 -60.6063 20.1117 1.71911 5 12.3904 
250 4 -59.4163 18.442 0.307971 1 8.98923e-16 
564 4 -58.2263 19.5552 2.18949 1 1.00004e-15 
566 4 -56.4414 20.2972 0.621557 1 1.20152e-15 
999 4 -54.0614 19.7407 1.09194 1 1.95906e-09 
1044 1 -51.6815 19.1841 1.56235 1 3.9653e-09 
1518 1 -49.3015 18.6277 2.03276 1 4.31999e-09 
1522 1 -47.5165 19.3698 0.464864 1 3.27862e-09 
1565 1 -46.9216 18.0712 2.50318 1 1.72843e-09 
1995 1 -46.3266 20.483 2.34638 1 1.53021e-09 
2043 1 -45.1366 18.8134 0.935272 1 4.95792e-09 
2044 1 -42.7566 18.2569 1.40568 1 4.26387e-09 
2522 1 -39.7817 20.1123 1.71928 1 2.15276e-09 
2567 1 -38.5917 18.4427 0.308171 1 1.94133e-09 
3040 1 -37.4017 19.5559 2.1897 1 7.08976e-09 
3042 1 -35.6168 20.2981 0.621816 1 2.79777e-09 
3519 1 -33.2368 19.7418 1.09226 1 5.64571e-09 
3564 1 -30.8568 19.1854 1.56271 1 1.19627e-08 
4038 1 -28.4769 18.629 2.03318 1 2.99501e-08 
4042 1 -26.6919 19.3712 0.465304 1 5.98932e-08 
4085 1 -26.0969 18.0726 2.50368 1 6.62329e-08 
4515 1 -25.502 20.4844 2.34694 1 3.88705e-08 
4563 1 -24.3119 18.8148 0.935799 1 1.27463e-07 
4564 1 -21.932 18.2584 1.4063 1 3.52607e-07 
5042 1 -18.9577 20.1137 1.72015 1 8.88814e-07 
5087 1 -17.7671 18.4442 0.308567 1 1.90117e-06 
5560 1 -16.5785 19.5573 2.19083 1 3.69756e-06 
5562 1 -14.7938 20.2993 0.623022 1 1.14828e-05 
6039 1 -12.4158 19.7428 1.09467 1 8.44277e-05 
6084 1 -10.0384 19.1868 1.56796 1 0.000756317 
6553 1 -7.66334 18.6273 2.04815 1 0.00733923 
6557 1 -5.93744 19.3724 0.465938 1 0.082181 
6600 1 -5.27315 18.0793 2.53327 1 0.0802267 
6966 1 -4.72215 20.4959 2.324 1 0.392786 
7014 1 -3.61869 18.8339 0.883437 5 1.96011 
7015 1 -1.4951 18.1394 1.3789 5 8.78137 
7319 1 -0.399039 20.2364 2.16049 5 5.97322 
7658 2 0.737965 18.5318 0.82454 1 0.472683 
7875 2 3.04398 18.8985 0.263064 1 0.0693624 
7880 2 4.75561 18.7074 2.0255 1 0.0123274 
8241 2 7.14732 19.0773 1.39256 1 0.00154324 
8244 2 9.53019 19.4475 0.76119 1 0.000206374 
8669 2 11.3121 19.2605 2.48373 1 5.42974e-05 
8711 2 11.9096 19.8182 0.131283 1 2.83942e-05 
8713 2 13.6926 19.6322 1.8553 1 9.1826e-06 
9186 2 16.0725 20.0035 1.22742 1 1.59903e-06 
9225 2 18.4522 20.3747 0.59994 1 3.27469e-07 
9661 2 19.0468 18.1485 1.54062 1 3.07025e-07 
9708 2 20.2369 20.1893 2.32467 1 1.9232e-07 
9707 2 21.4268 18.5196 0.913421 1 1.12626e-07 
10185 2 23.8067 18.8908 0.286275 1 3.83398e-08 
10190 2 25.5917 18.7054 2.01101 1 1.92108e-08 
10704 2 27.9716 19.0765 1.38389 1 2.31314e-08 
10707 2 30.3516 19.4475 0.756799 1 2.23591e-09 
527 4 -60.0113 22.5235 1.56232 5 6.1952 
528 4 -58.8213 20.8538 0.151178 1 1.29732e-15 
530 4 -57.6314 21.9669 2.0327 1 1.99401e-16 
953 4 -55.8464 22.709 0.464764 1 8.99963e-16 
998 4 -55.2514 21.4104 2.50308 1 1.10008e-15 
1000 4 -53.4664 22.1524 0.935144 1 3.78594e-09 
1473 1 -51.0865 21.5959 1.40555 1 3.25158e-09 
1519 1 -48.7065 21.0395 1.87597 1 1.86487e-09 
1998 1 -46.9216 21.7816 0.30805 1 2.36191e-09 
1996 1 -45.7316 22.8948 2.18958 1 1.51838e-09 
1999 1 -44.5416 21.2252 0.778458 1 1.6803e-09 
2476 1 -41.5667 23.0805 1.09207 1 2.52015e-09 
2520 1 -42.1617 20.6687 1.24887 1 1.47812e-09 
2994 1 -39.1867 22.5241 1.5625 1 3.11262e-09 
2995 1 -37.9967 20.8545 0.151386 1 3.65296e-09 
2997 1 -36.8068 21.9677 2.03293 1 2.8399e-09 
3473 1 -35.0218 22.7099 0.46505 1 1.24601e-09 
3518 1 -34.4268 21.4113 2.50338 1 1.94512e-09 
3520 1 -32.6418 22.1536 0.935494 1 7.84706e-09 
3993 1 -30.2619 21.5972 1.40596 1 4.45001e-09 
4039 1 -27.8819 21.0408 1.87643 1 1.28899e-08 
4518 1 -26.097 21.783 0.308555 1 2.91e-08 
4516 1 -24.9071 22.8961 2.19023 1 6.72463e-08 
4519 1 -23.717 21.2266 0.779044 1 7.58073e-08 
4996 1 -20.7424 23.0819 1.09297 1 5.44076e-07 
5040 1 -21.3372 20.6702 1.24957 1 2.35348e-07 
5514 1 -18.3629 22.5254 1.56368 1 2.41008e-06 
5515 1 -17.1728 20.8558 0.152183 1 2.0171e-06 
5517 1 -15.9836 21.969 2.03466 1 1.07738e-05 
5993 1 -14.1998 22.7108 0.466719 1 4.59826e-05 
6038 1 -13.6048 21.4126 2.50621 1 5.19593e-05 
6040 1 -11.8229 22.1544 0.938001 1 0.000302622 
6508 1 -9.44902 21.5996 1.40925 1 0.00210712 
6554 1 -7.08659 21.0433 1.88301 1 0.016677 
6969 1 -5.25748 21.7558 0.324517 1 0.246743 
6967 1 -4.03019 22.8531 2.12683 1 0.26312 
6970 1 -2.48319 21.048 0.636848 5 7.70703 
7276 1 -1.67847 22.3507 2.61694 5 2.76967 
7280 3 1.05632 22.806 0.807024 5 4.72566 
7661 2 1.87493 20.5753 1.65561 1 0.303859 
7693 2 2.99769 22.6021 2.47882 1 0.0878457 
7917 2 4.20586 20.9365 1.06682 1 0.0344934 
7918 2 5.36535 22.9746 1.8548 1 0.00669738 
7920 2 6.56634 21.3064 0.444726 1 0.00424112 
8242 2 8.33876 21.1165 2.17069 1 0.000239808 
8281 2 10.72 21.488 1.542 1 5.43049e-05 
8712 2 13.0994 21.859 0.914047 1 1.61312e-05 
8746 2 15.4786 22.23 0.286467 1 4.87546e-06 
9226 2 17.2626 22.0444 2.01119 1 8.7902e-07 
9229 2 19.6424 22.4155 1.3839 1 2.21981e-07 
9711 2 22.6168 20.5604 1.69744 1 5.56631e-08 
9743 2 22.0221 22.7867 0.756669 1 5.54881e-08 
9745 2 23.8069 22.6012 2.48143 1 2.95074e-08 
10227 2 24.9967 20.9316 1.07027 1 2.67661e-08 
10228 2 26.1867 22.9724 1.85425 1 2.3716e-08 
10230 2 27.3767 21.3027 0.44313 1 2.56358e-08 
10705 2 29.1616 21.1172 2.16791 1 7.64855e-09 
504 4 -61.7963 25.4918 0.935144 5 37.1712 
505 4 -59.4163 24.9353 1.40552 1 5.00603e-16 
952 4 -57.0364 24.3787 1.8759 1 1.39876e-15 
954 4 -55.2514 25.1208 0.307971 1 4.98923e-16 
955 4 -54.6564 23.8221 2.34628 1 2.82378e-10 
1428 4 -52.8714 24.5642 0.778351 1 4.23263e-09 
1474 1 -50.4915 24.0077 1.24875 1 9.27984e-09 
1950 1 -48.1115 23.4512 1.71917 1 4.30704e-09 
1953 1 -46.3266 24.1934 0.151259 1 2.06297e-09 
2426 1 -45.1366 25.3066 2.0328 1 3.46484e-09 
2475 1 -43.9466 23.637 0.621656 1 3.03612e-09 
2473 1 -42.7566 24.7502 2.5032 1 2.23597e-09 
2950 1 -40.9717 25.4923 0.935292 1 4.7276e-09 
2951 1 -38.5917 24.9359 1.40573 1 3.61556e-09 
3472 1 -36.2118 24.3795 1.87617 1 2.84194e-09 
3474 1 -34.4268 25.1218 0.30829 1 3.17239e-09 
3475 1 -33.8318 23.8232 2.34662 1 2.34867e-09 
3948 1 -32.0469 24.5654 0.778748 1 4.16896e-09 
3994 1 -29.6669 24.009 1.24923 1 7.69601e-09 
4470 1 -27.287 23.4526 1.71972 1 1.96253e-08 
4473 1 -25.502 24.1947 0.151883 1 2.91182e-08 
4946 1 -24.3121 25.3079 2.03355 1 1.21356e-07 
4995 1 -23.1222 23.6383 0.622395 1 1.22233e-07 
4993 1 -21.9322 24.7515 2.50408 1 3.50437e-07 
5470 1 -20.1474 25.4937 0.936285 1 1.1098e-06 
5471 1 -17.7676 24.9372 1.40687 1 3.85253e-06 
5992 1 -15.388 24.3807 1.87743 1 1.473e-05 
5994 1 -13.6022 25.1223 0.310101 1 4.69161e-05 
5995 1 -13.0084 23.8244 2.34784 1 7.04826e-05 
6463 1 -11.2209 24.565 0.780319 1 0.000215513 
6509 1 -8.83652 24.0076 1.24813 1 0.000869128 
6921 1 -6.45058 23.4491 1.71486 1 0.0119263 
6924 1 -4.65646 24.2109 0.186899 1 0.0963164 
7230 1 -3.3274 25.3114 2.03855 5 4.46053 
7277 3 -0.280473 24.4857 2.231 5 7.84031 
7279 1 -2.16402 23.6407 0.672836 5 4.16443 
7692 2 2.31582 24.7925 1.52108 1 0.150361 
7694 2 3.53887 23.1454 0.141569 1 0.027878 
7719 2 4.74474 25.1821 0.908844 1 0.0091558 
7950 2 7.138 25.5643 0.282074 1 0.000928523 
7951 2 7.74379 23.3447 1.22631 1 0.000713929 
7952 2 6.54531 25.0135 2.63225 1 0.00146565 
7955 2 8.92943 25.3844 2.00703 1 0.000181649 
8280 2 10.124 23.7151 0.599392 1 0.000107468 
8285 2 11.9089 23.5288 2.32351 1 2.47153e-05 
8747 2 14.2886 23.8999 1.69702 1 8.90868e-06 
8750 2 16.6681 24.2709 1.07012 1 3.05197e-06 
9257 2 19.0477 24.6419 0.443018 1 9.65365e-07 
9259 2 20.8323 24.4563 2.1678 1 2.25625e-07 
9744 2 23.2121 24.8275 1.54062 1 6.83808e-08 
9746 2 24.4019 23.1578 0.129482 1 2.01608e-08 
9771 2 25.5919 25.1986 0.913463 1 3.07993e-08 
10260 2 27.9717 25.5697 0.286346 1 1.59808e-08 
10261 2 28.5666 23.3434 1.22714 1 1.12162e-08 
10265 2 29.7566 25.3841 2.01114 1 6.92252e-09 
10743 2 30.9465 23.7144 0.600052 1 6.0671e-09 
494 4 -61.2013 27.9036 0.778351 5 18.5856 
910 4 -58.8213 27.347 1.24873 1 5.99964e-16 
912 4 -56.4414 26.7905 1.71911 1 1.40128e-15 
1382 4 -54.6564 27.5325 0.151178 1 1.04655e-10 
1427 4 -54.0614 26.2339 2.18949 1 3.64972e-10 
1429 1 -52.2765 26.976 0.621567 1 6.069e-09 
1905 1 -51.0865 28.0891 2.5031 1 1.12339e-08 
1906 1 -49.8965 26.4195 1.09198 1 1.15706e-08 
1951 1 -47.5165 25.863 1.56238 1 2.30167e-09 
2427 1 -44.5416 27.7184 1.87601 1 2.8843e-09 
2430 1 -43.3516 26.0488 0.464868 1 3.08571e-09 
2902 1 -42.1617 27.1619 2.34641 1 4.40845e-09 
2906 1 -40.3767 27.9041 0.778515 1 4.00247e-09 
3427 1 -37.9968 27.3477 1.24895 1 4.3015e-09 
3429 1 -35.6168 26.7913 1.7194 1 2.83197e-09 
3902 1 -33.8318 27.5335 0.151521 1 2.84935e-09 
3947 1 -33.2369 26.235 2.18987 1 8.64836e-09 
3949 1 -31.4519 26.9772 0.622003 1 7.0912e-09 
4425 1 -30.2619 28.0904 2.50358 1 7.97732e-09 
4426 1 -29.072 26.4208 1.09251 1 2.01762e-08 
4471 1 -26.692 25.8643 1.56304 1 4.33605e-08 
4947 1 -23.717 27.7197 1.87678 1 1.09779e-07 
4950 1 -22.5272 26.0501 0.465735 1 3.33773e-07 
5422 1 -21.337 27.1633 2.34721 1 2.78904e-07 
5426 1 -19.5519 27.9056 0.779483 1 7.78974e-07 
5947 1 -17.1714 27.3491 1.24984 1 3.11363e-06 
5949 1 -14.7903 26.7926 1.71981 1 1.53906e-05 
6417 1 -13.0033 27.5354 0.153894 1 0.000157178 
6462 1 -12.4078 26.236 2.1888 1 9.52489e-05 
6464 1 -10.6168 26.9795 0.625047 1 0.00113055 
6876 1 -9.41726 28.0919 2.50467 1 0.00490657 
6877 1 -8.22078 26.4244 1.09632 1 0.00821801 
6922 1 -5.80798 25.8775 1.57829 1 0.0689557 
7231 1 -2.99365 27.6799 1.78748 1 0.814958 
7234 1 -1.66607 25.9975 0.277336 5 4.5707 
7441 1 -0.760654 26.8788 2.21845 5 7.34306 
7584 2 1.65189 27.0457 0.640969 5 1.3095 
7720 2 3.59695 26.8599 2.29612 1 0.092 
7723 2 5.95802 27.2313 1.68368 1 0.00555544 
7975 2 8.33412 27.6075 1.06315 1 0.000611731 
7978 2 10.7146 27.9804 0.439716 1 7.64152e-05 
8309 2 11.3113 25.7553 1.38175 1 2.43337e-05 
8310 2 12.5009 27.7957 2.16591 1 2.01013e-05 
8312 2 13.6921 26.1262 0.755757 1 4.01833e-06 
8330 2 14.8815 28.1667 1.53971 1 3.46993e-06 
8748 2 15.4777 25.9406 2.48064 1 3.40291e-06 
8772 2 16.0723 26.4971 0.129156 1 1.10509e-06 
8774 2 17.8575 26.3116 1.85393 1 1.08628e-06 
9258 2 20.2373 26.6826 1.22694 1 3.61966e-07 
9279 2 22.6171 27.0537 0.599812 1 1.04658e-07 
9772 2 24.4019 26.8683 2.32458 1 4.90085e-08 
9775 2 26.7818 27.2394 1.69746 1 2.5353e-08 
10285 2 29.1616 27.6104 1.07035 1 8.62795e-09 
879 4 -60.6063 30.3153 0.621557 5 6.1952 
880 4 -58.2263 29.7588 1.09194 1 1.49932e-15 
1381 4 -55.8464 29.2022 1.56232 1 1.40124e-15 
1384 4 -53.4664 28.6457 2.0327 1 2.62615e-09 
1860 1 -51.6815 29.3878 0.46479 1 4.78055e-09 
1862 1 -50.4915 30.5009 2.34635 1 1.18105e-08 
1907 1 -49.3015 28.8313 0.935223 1 8.44343e-09 
2381 1 -46.9216 28.2748 1.40563 1 5.32523e-09 
2382 1 -46.3266 30.6866 1.24885 1 2.20027e-09 
2857 1 -43.9466 30.1302 1.71924 1 5.27985e-09 
2903 1 -41.5667 29.5737 2.18963 1 3.84463e-09 
2905 1 -42.7567 28.4606 0.308094 1 2.6644e-09 
3382 1 -39.7817 30.3159 0.621739 1 4.83089e-09 
3383 1 -37.4018 29.7595 1.09216 1 3.19577e-09 
3901 1 -35.0218 29.2031 1.56262 1 2.08059e-09 
3904 1 -32.6419 28.6468 2.03309 1 4.62953e-09 
4380 1 -30.8569 29.389 0.465242 1 6.09481e-09 
4382 1 -29.6669 30.5022 2.34679 1 5.02513e-09 
4427 1 -28.4769 28.8326 0.935752 1 1.60976e-08 
4901 1 -26.097 28.2762 1.40629 1 4.9769e-08 
4902 1 -25.5019 30.688 1.24948 1 3.34155e-08 
5377 1 -23.1218 30.1316 1.71997 1 1.32786e-07 
5423 1 -20.7415 29.5752 2.19034 1 5.86223e-07 
5425 1 -21.932 28.462 0.309018 1 2.65337e-07 
5902 1 -18.9562 30.3176 0.622647 1 2.98011e-06 
5903 1 -16.5752 29.7613 1.09301 1 1.74724e-05 
6416 1 -14.1929 29.2049 1.56327 1 0.000106952 
6419 1 -11.8079 28.6486 2.03352 1 0.000700199 
6831 1 -10.0305 29.3924 0.461005 1 0.00124088 
6833 1 -8.85261 30.5045 2.34204 1 0.00488539 
6878 1 -7.65549 28.835 0.921854 1 0.00972293 
7185 1 -5.30191 28.2769 1.37391 1 0.0827541 
7186 1 -4.6832 30.6831 1.238 1 0.0691626 
7396 1 -2.32135 30.1511 1.79936 5 2.64585 
7443 1 -1.13054 28.5088 0.458165 5 3.80603 
7442 3 0.605452 28.8333 2.09172 5 2.24094 
7587 2 2.9525 29.0809 1.37163 1 0.0713786 
7737 2 5.35742 29.4575 0.757741 1 0.00474511 