ITEM: TIMESTEP
0
ITEM: NUMBER OF ATOMS
24816
ITEM: BOX BOUNDS ss pp pp
-62.6238 117.697
0 31.68
0 47.2258
ITEM: ATOMS id type x y z c_cna c_csd 
460 4 -62.6237 0.00712524 0.247187 5 30.976 
461 4 -61.0495 1.76713 1.03428 5 6.1952 
515 4 -61.8366 0.00712524 2.60847 5 18.5856 
964 4 -58.6882 1.18046 1.55901 1 8.02731e-16 
966 4 -56.3269 0.593792 2.08374 1 1.20064e-15 
1464 4 -55.5398 2.35379 0.509552 1 1.19695e-15 
1465 4 -54.7527 0.00712524 0.247187 1 2.22003e-09 
1466 4 -53.1785 1.76713 1.03428 1 3.97785e-08 
1520 4 -53.9656 0.00712524 2.60847 1 1.36476e-08 
2033 1 -50.8172 1.18032 1.55902 1 3.68285e-09 
2035 1 -48.456 0.593504 2.08379 1 1.02084e-08 
2544 1 -47.6689 2.35344 0.509621 1 6.57726e-09 
2545 1 -46.8818 0.00671432 0.247284 1 6.69915e-09 
2546 1 -45.3077 1.76656 1.03444 1 1.91644e-09 
2600 1 -46.0948 0.00663984 2.60861 1 4.47971e-09 
3113 1 -42.9465 1.17968 1.55927 1 4.02272e-09 
3115 1 -40.5853 0.592814 2.08408 1 3.44639e-09 
3624 1 -39.7982 2.35273 0.509909 1 1.87135e-09 
3625 1 -39.0111 0.00600309 0.247576 1 3.86874e-09 
3626 1 -37.437 1.76588 1.03472 1 2.76843e-09 
3680 1 -38.2241 0.00595201 2.60888 1 4.50857e-09 
4193 1 -35.0758 1.179 1.55954 1 5.47455e-09 
4195 1 -32.7146 0.592117 2.08435 1 1.1816e-08 
4704 1 -31.9275 2.35204 0.510173 1 7.5654e-09 
4705 1 -31.1405 0.00531918 0.247804 1 7.7983e-09 
4706 1 -29.5663 1.76519 1.03492 1 6.07857e-09 
4760 1 -30.3534 0.00526207 2.60911 1 8.5188e-09 
5273 1 -27.205 1.17835 1.55969 1 2.4801e-08 
5275 1 -24.8438 0.591485 2.08448 1 9.74117e-08 
5784 1 -24.0566 2.35132 0.510331 1 5.11391e-07 
5785 1 -23.2695 0.00462365 0.247991 1 5.0729e-07 
5786 1 -21.6952 1.76431 1.03518 1 2.17435e-06 
5840 1 -22.4825 0.00457571 2.60929 1 3.52767e-07 
6353 1 -19.3336 1.17714 1.56006 1 9.29314e-06 
6355 1 -16.9715 0.589714 2.08502 1 3.87258e-05 
6864 1 -16.1876 2.35026 0.51039 1 1.4887e-05 
6865 1 -15.3968 0.0024644 0.24872 1 7.7938e-05 
6866 1 -13.8273 1.76276 1.03514 1 5.47481e-05 
6920 1 -14.6083 0.00183228 2.61024 1 0.000161705 
7429 1 -11.4672 1.17496 1.55997 1 0.000202041 
7431 1 -9.10676 0.586395 2.08506 1 0.000934311 
7898 1 -8.3391 2.35787 0.506281 1 0.00953732 
7900 1 -6.00962 1.76559 1.02946 1 0.0495599 
8340 1 -3.68064 1.21789 1.56073 5 0.90658 
8342 1 -1.35744 0.935336 1.9244 5 5.99923 
8546 1 0.0500077 2.33933 0.143626 5 5.79974 
10293 2 0.889316 2.36162 2.39755 5 4.61524 
10289 2 2.07533 0.647018 0.826892 1 0.70894 
10848 2 4.38318 1.20035 1.25318 1 0.0903746 
10850 2 6.73495 1.76778 1.76737 1 0.00902823 
11367 2 7.53173 0.00447812 0.194853 1 0.00474635 
11368 2 8.3173 0.00694687 2.55901 1 0.00397998 
11373 2 9.0859 2.35306 2.29223 1 0.00156786 
11369 2 9.87935 0.590857 0.719696 1 0.0012166 
11928 2 12.234 1.17593 1.24422 1 0.000309124 
11930 2 14.592 1.76144 1.76881 1 7.91623e-05 
12448 2 16.1634 0.000216375 2.55553 1 6.91827e-06 
12453 2 16.9516 2.34742 2.29343 1 2.04836e-05 
12449 2 17.7368 0.586562 0.718944 1 4.72824e-06 
13008 2 20.0982 1.17325 1.24374 1 9.48163e-07 
13010 2 22.4595 1.75986 1.76851 1 2.04036e-07 
13533 2 24.8207 2.34644 2.29325 1 4.6204e-08 
13529 2 25.6076 0.58639 0.719045 1 1.50049e-07 
458 4 -61.8366 4.11379 1.29665 5 12.3904 
909 4 -59.4753 3.52713 1.82138 1 8.01004e-16 
962 4 -57.114 2.94046 2.34611 1 1.00106e-15 
1413 4 -56.3269 4.70046 0.771918 1 1.09801e-15 
1462 4 -53.9656 4.11379 1.29665 1 1.14174e-08 
1978 1 -51.6043 3.52704 1.82138 1 6.9379e-09 
2031 1 -49.2431 2.94023 2.34614 1 5.98591e-09 
2493 1 -48.456 4.70018 0.771969 1 5.20654e-09 
2542 1 -46.0948 4.11331 1.29678 1 3.40652e-09 
3058 1 -43.7336 3.52643 1.82161 1 6.32859e-09 
3111 1 -41.3724 2.93955 2.34641 1 6.11101e-09 
3573 1 -40.5853 4.69947 0.772248 1 1.89016e-09 
3622 1 -38.2241 4.11261 1.29705 1 1.23413e-09 
4138 1 -35.8629 3.52574 1.82187 1 6.13977e-09 
4191 1 -33.5016 2.93885 2.34669 1 1.08098e-08 
4653 1 -32.7146 4.69877 0.772528 1 1.44091e-08 
4702 1 -30.3533 4.11191 1.29729 1 1.37885e-08 
5218 1 -27.9921 3.52505 1.82205 1 5.0404e-08 
5271 1 -25.6308 2.93817 2.34683 1 2.29531e-07 
5733 1 -24.844 4.69814 0.772616 1 7.47398e-08 
5782 1 -22.4828 4.11118 1.29743 1 2.76994e-07 
6298 1 -20.1217 3.52416 1.82223 1 1.21874e-06 
6351 1 -17.7606 2.93698 2.34704 1 5.24879e-06 
6813 1 -16.9755 4.69781 0.772539 1 4.45357e-05 
6862 1 -14.6166 4.11122 1.2969 1 0.0001846 
7374 1 -12.2599 3.52491 1.82067 1 0.00076295 
7427 1 -9.90716 2.94032 2.34326 1 0.0031757 
7847 1 -9.09672 4.69912 0.770268 1 0.000795827 
7896 1 -6.73002 4.11565 1.2904 1 0.00770231 
8285 1 -4.37713 3.49521 1.83816 5 0.498602 
8286 1 -3.55678 5.1963 0.227375 1 0.443193 
8287 1 -2.83387 5.19857 2.55908 5 2.06139 
8288 1 -2.56716 2.94467 0.197024 5 1.97442 
8537 1 -0.914089 4.56421 1.06076 5 3.0062 
10290 2 1.84856 4.65774 1.94909 5 0.774591 
10291 2 2.60547 2.92162 0.362981 1 0.595069 
10292 2 3.52434 5.21093 0.20099 1 0.1393 
10303 2 4.32351 5.23251 2.55519 1 0.0657284 
10847 2 5.09328 3.49818 0.969386 1 0.0528167 
10854 2 7.47987 4.10439 1.50232 1 0.00578664 
11370 2 9.85417 4.69342 2.02858 1 0.00114836 
11371 2 10.6598 2.93826 0.456685 1 0.000904119 
11927 2 13.0176 3.5226 0.981411 1 0.000192646 
11934 2 15.3771 4.10803 1.50618 1 4.12753e-05 
12450 2 17.7376 4.69399 2.03089 1 8.82348e-06 
12451 2 18.525 2.93362 0.45679 1 5.63772e-06 
13007 2 20.8858 3.52009 0.981488 1 1.54424e-06 
13014 2 23.2468 4.10659 1.5062 1 4.34376e-07 
13530 2 25.6079 4.69313 2.03092 1 1.32838e-07 
13531 2 26.3948 2.93303 0.456687 1 5.79513e-08 
13532 2 27.182 5.27971 0.19434 1 2.7171e-08 
422 4 -62.6237 6.46046 1.55901 5 30.976 
908 4 -60.2624 5.87379 2.08374 1 1.201e-15 
864 4 -59.4753 7.63379 0.509552 1 1.19701e-15 
910 4 -58.6882 5.28713 0.247187 1 6.96016e-16 
911 4 -57.9011 5.28713 2.60847 1 5e-16 
1412 4 -57.114 7.04713 1.03428 1 4.98007e-16 
1414 4 -54.7527 6.46046 1.55901 1 2.44066e-09 
1977 1 -52.3914 5.87374 2.08375 1 1.14554e-08 
1933 1 -51.6043 7.63371 0.509564 1 5.95376e-09 
1979 1 -50.8172 5.28701 0.247193 1 6.63433e-09 
1980 1 -50.0302 5.28695 2.6085 1 4.69631e-09 
2492 1 -49.2431 7.0469 1.03431 1 8.95593e-09 
2494 1 -46.8818 6.46005 1.55911 1 3.80765e-09 
3013 1 -43.7336 7.63307 0.509757 1 6.71542e-09 
3057 1 -44.5206 5.87317 2.08393 1 9.7202e-10 
3059 1 -42.9465 5.28635 0.247429 1 3.74591e-09 
3060 1 -42.1594 5.28629 2.60875 1 9.24672e-10 
3572 1 -41.3723 7.04621 1.03458 1 1.95897e-09 
3574 1 -39.0111 6.45933 1.5594 1 3.93942e-09 
4093 1 -35.8628 7.6324 0.510035 1 4.9252e-09 
4137 1 -36.6499 5.87248 2.0842 1 7.82183e-09 
4139 1 -35.0758 5.28566 0.247706 1 9.31339e-09 
4140 1 -34.2887 5.28559 2.60903 1 5.72468e-09 
4652 1 -33.5016 7.04552 1.03486 1 7.10951e-09 
4654 1 -31.1404 6.45864 1.55964 1 7.02179e-09 
5173 1 -27.9923 7.63177 0.510192 1 5.95685e-08 
5217 1 -28.7792 5.87179 2.0844 1 9.30275e-09 
5219 1 -27.2051 5.28501 0.247847 1 1.67773e-08 
5220 1 -26.418 5.28492 2.60916 1 5.16489e-08 
5732 1 -25.6311 7.04493 1.03495 1 2.24735e-07 
5734 1 -23.2701 6.45807 1.55973 1 8.58629e-07 
6253 1 -20.1217 7.63116 0.510376 1 1.92508e-06 
6297 1 -20.9093 5.87119 2.08449 1 3.27566e-06 
6299 1 -19.3356 5.28454 0.24791 1 1.06142e-05 
6300 1 -18.5488 5.28435 2.6092 1 1.31792e-05 
6812 1 -17.7608 7.04435 1.03509 1 8.30708e-06 
6814 1 -15.4001 6.45765 1.55963 1 3.49768e-05 
7329 1 -12.2426 7.62809 0.511947 1 0.000331462 
7373 1 -13.0402 5.87123 2.08364 1 0.000144304 
7375 1 -11.4613 5.28419 0.247582 1 0.000185849 
7376 1 -10.682 5.28539 2.60652 1 0.000599107 
7846 1 -9.87479 7.03935 1.03791 1 0.000958781 
7848 1 -7.50179 6.45529 1.56347 1 0.00300299 
8240 1 -4.31373 7.63503 0.521121 1 0.164419 
8284 1 -5.12992 5.88349 2.06996 1 0.0531166 
8536 1 -2.00334 6.85575 0.977467 1 1.13498 
9786 2 0.448434 6.53007 1.33008 5 4.97641 
10301 2 2.86174 6.97935 1.77728 1 0.177346 
10304 2 5.17515 7.62945 2.29734 1 0.0129704 
10852 2 5.89537 5.85398 0.721639 1 0.013474 
10855 2 8.27329 6.44842 1.24262 1 0.00305109 
11372 2 11.4347 5.28095 0.193489 1 0.00022705 
11381 2 10.6443 7.03766 1.76735 1 0.00082481 
11383 2 12.2216 5.28015 2.55433 1 0.000264689 
11384 2 13.0102 7.62585 2.29244 1 0.000208651 
11932 2 13.7988 5.86737 0.718482 1 5.43718e-05 
11935 2 16.1614 6.45372 1.24344 1 1.39587e-05 
12452 2 19.3118 5.28036 0.194392 1 5.58177e-06 
12461 2 18.5233 7.04014 1.76832 1 3.64687e-06 
12463 2 20.0985 5.28026 2.55561 1 1.89064e-06 
12464 2 20.8849 7.62666 2.29314 1 9.86737e-07 
13012 2 21.6727 5.86676 0.719102 1 1.3138e-06 
13015 2 24.0338 6.45324 1.24383 1 3.48296e-07 
13541 2 26.3949 7.03977 1.76855 1 1.00461e-07 
859 4 -61.0495 8.22046 2.34611 5 6.1952 
860 4 -60.2624 9.98046 0.771918 1 1.09981e-15 
1368 4 -57.9011 9.39379 1.29665 1 2.9941e-16 
1410 4 -55.5398 8.80713 1.82138 1 8.01007e-16 
1928 4 -53.1785 8.22046 2.34611 1 4.31364e-08 
1929 1 -52.3914 9.98041 0.771923 1 1.27862e-08 
2448 1 -50.0302 9.39361 1.29668 1 4.04999e-09 
2490 1 -47.6689 8.80678 1.82145 1 9.51483e-09 
3008 1 -45.3077 8.21991 2.34626 1 1.91691e-09 
3009 1 -44.5206 9.97981 0.772099 1 5.57373e-09 
3528 1 -42.1594 9.39294 1.29692 1 2.90422e-09 
3570 1 -39.7982 8.80608 1.82174 1 2.82488e-09 
4088 1 -37.437 8.21921 2.34653 1 5.08872e-09 
4089 1 -36.6499 9.97914 0.77237 1 3.96124e-09 
4608 1 -34.2887 9.39226 1.29719 1 4.81434e-09 
4650 1 -31.9275 8.80538 1.82199 1 7.5691e-09 
5168 1 -29.5663 8.21853 2.34675 1 1.15787e-08 
5169 1 -28.7793 9.97849 0.772567 1 2.61439e-08 
5688 1 -26.4181 9.39166 1.29731 1 9.36308e-08 
5730 1 -24.057 8.80482 1.82209 1 3.6924e-07 
6248 1 -21.696 8.21797 2.34686 1 1.49257e-06 
6249 1 -20.9081 9.97764 0.772834 1 1.85137e-06 
6768 1 -18.5464 9.39058 1.2977 1 6.68276e-06 
6810 1 -16.1843 8.80338 1.82262 1 2.27964e-05 
7324 1 -13.8215 8.21614 2.34769 1 7.14842e-05 
7325 1 -13.0327 9.97414 0.774365 1 0.000351426 
7802 1 -10.6651 9.38459 1.30134 1 0.00163145 
7844 1 -8.29066 8.79123 1.83224 1 0.00860492 
8197 1 -7.54858 10.5591 0.250795 1 0.00417992 
8234 1 -6.74758 10.5493 2.61407 1 0.00775949 
8238 1 -6.71275 8.20759 0.000523467 1 0.0147347 
8235 1 -5.8895 8.20708 2.3737 1 0.0525101 
8236 1 -5.19106 9.98364 0.786952 1 0.0204088 
8504 1 -2.82079 9.49896 1.31571 1 0.612209 
8535 1 -0.691898 8.61694 1.94286 5 5.05686 
8683 2 -0.0606917 10.414 0.25548 5 7.03693 
9790 2 1.43605 8.73531 0.95259 5 3.49801 
10300 2 3.6666 9.42136 1.52295 1 0.0979741 
10319 2 5.97924 9.99074 2.03765 1 0.0157441 
10851 2 6.71804 8.21104 0.452074 1 0.00280155 
10865 2 9.08097 8.79819 0.979774 1 0.000603039 
11380 2 11.4416 9.38666 1.50559 1 0.000132076 
11399 2 13.8025 9.97362 2.03065 1 2.93766e-05 
11931 2 14.5851 8.21287 0.456008 1 9.16078e-05 
11943 2 15.3751 10.5597 0.194026 1 2.30452e-05 
11945 2 16.9482 8.79977 0.981061 1 2.34291e-05 
12460 2 19.3103 9.38651 1.50596 1 5.85857e-06 
12479 2 21.672 9.97317 2.03079 1 1.46947e-06 
13011 2 22.4594 8.21327 0.456669 1 1.69289e-07 
13023 2 23.2463 10.5598 0.194286 1 5.65944e-07 
13024 2 24.0334 10.5598 2.55558 1 3.84281e-07 
13025 2 24.8206 8.79981 0.981434 1 4.73843e-08 
13540 2 27.1819 9.38636 1.50616 1 1.26902e-08 
821 4 -62.6237 10.5671 0.247187 5 30.976 
822 4 -61.0495 12.3271 1.03428 5 6.1952 
858 4 -61.8366 10.5671 2.60847 5 18.5856 
1367 4 -58.6882 11.7405 1.55901 1 8.01411e-16 
1370 4 -56.3269 11.1538 2.08374 1 1.2016e-15 
1889 4 -55.5398 12.9138 0.509552 1 1.19701e-15 
1890 4 -54.7527 10.5671 0.247187 1 2.22004e-09 
1891 4 -53.1785 12.3271 1.03428 1 3.97785e-08 
1927 4 -53.9656 10.5671 2.60847 1 1.36476e-08 
2447 1 -50.8172 11.7403 1.55902 1 3.68286e-09 
2450 1 -48.456 11.1535 2.08379 1 1.02084e-08 
2969 1 -47.6689 12.9134 0.509621 1 6.57727e-09 
2970 1 -46.8818 10.5667 0.247284 1 6.69915e-09 
2971 1 -45.3077 12.3266 1.03444 1 1.91644e-09 
3007 1 -46.0948 10.5666 2.60861 1 4.47971e-09 
3527 1 -42.9465 11.7397 1.55927 1 4.02272e-09 
3530 1 -40.5853 11.1528 2.08408 1 3.44639e-09 
4049 1 -39.7982 12.9127 0.509909 1 1.87134e-09 
4050 1 -39.0111 10.566 0.247576 1 3.86874e-09 
4051 1 -37.437 12.3259 1.03472 1 2.76842e-09 
4087 1 -38.2241 10.566 2.60888 1 4.50856e-09 
4607 1 -35.0758 11.739 1.55954 1 5.47452e-09 
4610 1 -32.7146 11.1521 2.08435 1 1.1816e-08 
5129 1 -31.9275 12.912 0.510173 1 7.5654e-09 
5130 1 -31.1405 10.5653 0.247804 1 7.7983e-09 
5131 1 -29.5663 12.3252 1.03492 1 6.07857e-09 
5167 1 -30.3534 10.5653 2.60911 1 8.5188e-09 
5687 1 -27.205 11.7384 1.55969 1 2.4801e-08 
5690 1 -24.8438 11.1515 2.08448 1 9.74117e-08 
6209 1 -24.0566 12.9113 0.510331 1 5.11391e-07 
6210 1 -23.2695 10.5646 0.247991 1 5.0729e-07 
6211 1 -21.6952 12.3243 1.03518 1 2.17435e-06 
6247 1 -22.4825 10.5646 2.60929 1 3.52767e-07 
6767 1 -19.3336 11.7371 1.56006 1 9.29314e-06 
6770 1 -16.9715 11.1497 2.08502 1 3.87258e-05 
7285 1 -16.1876 12.9103 0.51039 1 1.4887e-05 
7286 1 -15.3968 10.5625 0.24872 1 7.7938e-05 
7287 1 -13.8273 12.3228 1.03514 1 5.47481e-05 
7323 1 -14.6083 10.5618 2.61024 1 0.000161705 
7801 1 -11.4672 11.735 1.55997 1 0.000202041 
7804 1 -9.10676 11.1464 2.08506 1 0.000934311 
8196 1 -8.3391 12.9179 0.506281 1 0.00953732 
8198 1 -6.00962 12.3256 1.02946 1 0.0495599 
8503 1 -3.68064 11.7779 1.56073 5 0.90658 
8506 1 -1.35744 11.4953 1.9244 5 5.99923 
8607 1 0.0500077 12.8993 0.143626 5 5.79974 
9806 2 0.889316 12.9216 2.39755 5 4.61524 
9791 2 2.07533 11.207 0.826892 1 0.70894 
10317 2 4.38318 11.7604 1.25318 1 0.0903746 
10320 2 6.73495 12.3278 1.76737 1 0.00902823 
10863 2 7.53173 10.5645 0.194853 1 0.00474635 
10864 2 8.3173 10.5669 2.55901 1 0.00397998 
10885 2 9.0859 12.9131 2.29223 1 0.00156786 
10866 2 9.87935 11.1509 0.719696 1 0.0012166 
11397 2 12.234 11.7359 1.24422 1 0.000309124 
11400 2 14.592 12.3214 1.76881 1 7.91623e-05 
11944 2 16.1634 10.5602 2.55553 1 6.91827e-06 
11965 2 16.9516 12.9074 2.29343 1 2.04836e-05 
11946 2 17.7368 11.1466 0.718944 1 4.72824e-06 
12477 2 20.0982 11.7333 1.24374 1 9.48163e-07 
12480 2 22.4595 12.3199 1.76851 1 2.04036e-07 
13045 2 24.8207 12.9064 2.29325 1 4.6204e-08 
13026 2 25.6076 11.1464 0.719045 1 1.50049e-07 
819 4 -61.8366 14.6738 1.29665 5 12.3904 
1330 4 -59.4753 14.0871 1.82138 1 8.01004e-16 
1365 4 -57.114 13.5005 2.34611 1 1.001e-15 
1856 4 -56.3269 15.2605 0.771918 1 1.09801e-15 
1887 4 -53.9656 14.6738 1.29665 1 1.14174e-08 
2410 1 -51.6043 14.087 1.82138 1 6.93789e-09 
2445 1 -49.2431 13.5002 2.34614 1 5.98592e-09 
2936 1 -48.456 15.2602 0.771969 1 5.20655e-09 
2967 1 -46.0948 14.6733 1.29678 1 3.40652e-09 
3490 1 -43.7336 14.0864 1.82161 1 6.32859e-09 
3525 1 -41.3724 13.4995 2.34641 1 6.11101e-09 
4016 1 -40.5853 15.2595 0.772248 1 1.89017e-09 
4047 1 -38.2241 14.6726 1.29705 1 1.23413e-09 
4570 1 -35.8629 14.0857 1.82187 1 6.13974e-09 
4605 1 -33.5016 13.4988 2.34669 1 1.08098e-08 
5096 1 -32.7146 15.2588 0.772528 1 1.44091e-08 
5127 1 -30.3533 14.6719 1.29729 1 1.37885e-08 
5650 1 -27.9921 14.0851 1.82205 1 5.0404e-08 
5685 1 -25.6308 13.4982 2.34683 1 2.29531e-07 
6176 1 -24.844 15.2581 0.772616 1 7.47399e-08 
6207 1 -22.4828 14.6712 1.29743 1 2.76994e-07 
6730 1 -20.1217 14.0842 1.82223 1 1.21874e-06 
6765 1 -17.7606 13.497 2.34704 1 5.24879e-06 
7252 1 -16.9755 15.2578 0.772539 1 4.45357e-05 
7283 1 -14.6166 14.6712 1.2969 1 0.0001846 
7764 1 -12.2599 14.0849 1.82067 1 0.00076295 
7799 1 -9.90716 13.5003 2.34326 1 0.0031757 
8163 1 -9.09672 15.2591 0.770268 1 0.000795827 
8194 1 -6.73002 14.6756 1.2904 1 0.00770231 
8466 1 -4.37713 14.0552 1.83816 5 0.498602 
8467 1 -3.55678 15.7563 0.227375 1 0.443193 
8468 1 -2.83387 15.7586 2.55908 5 2.06139 
8469 1 -2.56716 13.5047 0.197024 5 1.97442 
8601 1 -0.914089 15.1242 1.06076 5 3.0062 
9803 2 1.84856 15.2177 1.94909 5 0.774591 
9804 2 2.60547 13.4816 0.362981 1 0.595069 
9805 2 3.52434 15.7709 0.20099 1 0.1393 
9832 2 4.32351 15.7925 2.55519 1 0.0657284 
10316 2 5.09328 14.0582 0.969386 1 0.0528167 
10343 2 7.47987 14.6644 1.50232 1 0.00578664 
10882 2 9.85417 15.2534 2.02858 1 0.00114836 
10883 2 10.6598 13.4983 0.456685 1 0.000904119 
11396 2 13.0176 14.0826 0.981411 1 0.000192646 
11423 2 15.3771 14.668 1.50618 1 4.12753e-05 
11962 2 17.7376 15.254 2.03089 1 8.82348e-06 
11963 2 18.525 13.4936 0.45679 1 5.63772e-06 
12476 2 20.8858 14.0801 0.981488 1 1.54424e-06 
12503 2 23.2468 14.6666 1.5062 1 4.34376e-07 
13042 2 25.6079 15.2531 2.03092 1 1.32838e-07 
13043 2 26.3948 13.493 0.456687 1 5.79513e-08 
13044 2 27.182 15.8397 0.19434 1 2.7171e-08 
796 4 -62.6237 17.0205 1.55901 5 30.976 
1329 4 -60.2624 16.4338 2.08374 1 1.201e-15 
1303 4 -59.4753 18.1938 0.509552 1 1.19701e-15 
1331 4 -58.6882 15.8471 0.247187 1 6.96016e-16 
1332 4 -57.9011 15.8471 2.60847 1 5e-16 
1855 4 -57.114 17.6071 1.03428 1 4.98007e-16 
1857 4 -54.7527 17.0205 1.55901 1 2.44066e-09 
2409 1 -52.3914 16.4337 2.08375 1 1.14553e-08 
2383 1 -51.6043 18.1937 0.509564 1 5.95376e-09 
2411 1 -50.8172 15.847 0.247193 1 6.63433e-09 
2412 1 -50.0302 15.8469 2.6085 1 4.69633e-09 
2935 1 -49.2431 17.6069 1.03431 1 8.95594e-09 
2937 1 -46.8818 17.02 1.55911 1 3.80763e-09 
3463 1 -43.7336 18.1931 0.509757 1 6.71543e-09 
3489 1 -44.5206 16.4332 2.08393 1 9.72023e-10 
3491 1 -42.9465 15.8463 0.247429 1 3.74592e-09 
3492 1 -42.1594 15.8463 2.60875 1 9.24672e-10 
4015 1 -41.3723 17.6062 1.03458 1 1.95897e-09 
4017 1 -39.0111 17.0193 1.5594 1 3.93943e-09 
4543 1 -35.8628 18.1924 0.510035 1 4.92519e-09 
4569 1 -36.6499 16.4325 2.0842 1 7.82185e-09 
4571 1 -35.0758 15.8457 0.247706 1 9.31341e-09 
4572 1 -34.2887 15.8456 2.60903 1 5.72468e-09 
5095 1 -33.5016 17.6055 1.03486 1 7.10951e-09 
5097 1 -31.1404 17.0186 1.55964 1 7.02179e-09 
5623 1 -27.9923 18.1918 0.510192 1 5.95685e-08 
5649 1 -28.7792 16.4318 2.0844 1 9.30275e-09 
5651 1 -27.2051 15.845 0.247847 1 1.67773e-08 
5652 1 -26.418 15.8449 2.60916 1 5.16489e-08 
6175 1 -25.6311 17.6049 1.03495 1 2.24735e-07 
6177 1 -23.2701 17.0181 1.55973 1 8.58629e-07 
6703 1 -20.1217 18.1912 0.510376 1 1.92508e-06 
6729 1 -20.9093 16.4312 2.08449 1 3.27566e-06 
6731 1 -19.3356 15.8445 0.24791 1 1.06142e-05 
6732 1 -18.5488 15.8443 2.6092 1 1.31792e-05 
7251 1 -17.7608 17.6043 1.03509 1 8.30708e-06 
7253 1 -15.4001 17.0176 1.55963 1 3.49768e-05 
7737 1 -12.2426 18.1881 0.511947 1 0.000331462 
7763 1 -13.0402 16.4312 2.08364 1 0.000144304 
7765 1 -11.4613 15.8442 0.247582 1 0.000185849 
7766 1 -10.682 15.8454 2.60652 1 0.000599107 
8162 1 -9.87479 17.5993 1.03791 1 0.000958781 
8164 1 -7.50179 17.0153 1.56347 1 0.00300299 
8439 1 -4.31373 18.195 0.521121 1 0.164419 
8465 1 -5.12992 16.4435 2.06996 1 0.0531166 
8600 1 -2.00334 17.4158 0.977467 1 1.13498 
9313 2 0.448434 17.0901 1.33008 5 4.97641 
9830 2 2.86174 17.5394 1.77728 1 0.177346 
9833 2 5.17515 18.1894 2.29734 1 0.0129704 
10341 2 5.89537 16.414 0.721639 1 0.013474 
10344 2 8.27329 17.0084 1.24262 1 0.00305109 
10884 2 11.4347 15.8409 0.193489 1 0.00022705 
10909 2 10.6443 17.5977 1.76735 1 0.00082481 
10911 2 12.2216 15.8402 2.55433 1 0.000264689 
10912 2 13.0102 18.1859 2.29244 1 0.000208651 
11421 2 13.7988 16.4274 0.718482 1 5.43718e-05 
11424 2 16.1614 17.0137 1.24344 1 1.39587e-05 
11964 2 19.3118 15.8404 0.194392 1 5.58177e-06 
11989 2 18.5233 17.6001 1.76832 1 3.64687e-06 
11991 2 20.0985 15.8403 2.55561 1 1.89064e-06 
11992 2 20.8849 18.1867 2.29314 1 9.86737e-07 
12501 2 21.6727 16.4268 0.719102 1 1.3138e-06 
12504 2 24.0338 17.0132 1.24383 1 3.48296e-07 
13069 2 26.3949 17.5998 1.76855 1 1.00461e-07 
1298 4 -61.0495 18.7805 2.34611 5 6.1952 
1299 4 -60.2624 20.5405 0.771918 1 1.09801e-15 
1829 4 -57.9011 19.9538 1.29665 1 3.00007e-16 
1853 4 -55.5398 19.3671 1.82138 1 8.01004e-16 
2378 4 -53.1785 18.7805 2.34611 1 4.31365e-08 
2379 1 -52.3914 20.5404 0.771923 1 1.27862e-08 
2909 1 -50.0302 19.9536 1.29668 1 4.04999e-09 
2933 1 -47.6689 19.3668 1.82145 1 9.51485e-09 
3458 1 -45.3077 18.7799 2.34626 1 1.91691e-09 
3459 1 -44.5206 20.5398 0.772099 1 5.57371e-09 
3989 1 -42.1594 19.9529 1.29692 1 2.90422e-09 
4013 1 -39.7982 19.3661 1.82174 1 2.82488e-09 
4538 1 -37.437 18.7792 2.34653 1 5.08871e-09 
4539 1 -36.6499 20.5391 0.77237 1 3.96125e-09 
5069 1 -34.2887 19.9523 1.29719 1 4.81434e-09 
5093 1 -31.9275 19.3654 1.82199 1 7.56909e-09 
5618 1 -29.5663 18.7785 2.34675 1 1.15786e-08 
5619 1 -28.7793 20.5385 0.772567 1 2.61439e-08 
6149 1 -26.4181 19.9517 1.29731 1 9.36307e-08 
6173 1 -24.057 19.3648 1.82209 1 3.6924e-07 
6698 1 -21.696 18.778 2.34686 1 1.49257e-06 
6699 1 -20.9081 20.5376 0.772834 1 1.85137e-06 
7225 1 -18.5464 19.9506 1.2977 1 6.68276e-06 
7249 1 -16.1843 19.3634 1.82262 1 2.27964e-05 
7732 1 -13.8215 18.7761 2.34769 1 7.14842e-05 
7733 1 -13.0327 20.5341 0.774365 1 0.000351426 
8136 1 -10.6651 19.9446 1.30134 1 0.00163145 
8160 1 -8.29066 19.3512 1.83224 1 0.00860492 
8414 1 -7.54858 21.1191 0.250795 1 0.00417992 
8433 1 -6.74758 21.1093 2.61407 1 0.00775949 
8437 1 -6.71275 18.7676 0.000523467 1 0.0147347 
8434 1 -5.8895 18.7671 2.3737 1 0.0525101 
8435 1 -5.19106 20.5436 0.786952 1 0.0204088 
8581 1 -2.82079 20.059 1.31571 1 0.612209 
8599 1 -0.691898 19.1769 1.94286 5 5.05686 
8634 2 -0.0606917 20.974 0.25548 5 7.03693 
9322 2 1.43605 19.2953 0.95259 5 3.49801 
9829 2 3.6666 19.9814 1.52295 1 0.0979741 
9864 2 5.97924 20.5507 2.03765 1 0.0157441 
10340 2 6.71804 18.771 0.452074 1 0.00280155 
10374 2 9.08097 19.3582 0.979774 1 0.000603039 
10908 2 11.4416 19.9467 1.50559 1 0.000132076 
10943 2 13.8025 20.5336 2.03065 1 2.93766e-05 
11420 2 14.5851 18.7729 0.456008 1 9.16078e-05 
11452 2 15.3751 21.1197 0.194026 1 2.30452e-05 
11454 2 16.9482 19.3598 0.981061 1 2.34291e-05 
11988 2 19.3103 19.9465 1.50596 1 5.85857e-06 
12023 2 21.672 20.5332 2.03079 1 1.46947e-06 
12500 2 22.4594 18.7733 0.456669 1 1.69289e-07 
12532 2 23.2463 21.1198 0.194286 1 5.65944e-07 
12533 2 24.0334 21.1198 2.55558 1 3.84281e-07 
12534 2 24.8206 19.3598 0.981434 1 4.73844e-08 
13068 2 27.1819 19.9464 1.50616 1 1.26902e-08 
1278 4 -62.6237 21.1271 0.247187 5 30.976 
1279 4 -61.0495 22.8871 1.03428 5 6.1952 
1297 4 -61.8366 21.1271 2.60847 5 18.5856 
1828 4 -58.6882 22.3005 1.55901 1 8.02008e-16 
1831 4 -56.3269 21.7138 2.08374 1 1.201e-15 
2357 4 -55.5398 23.4738 0.509552 1 1.19701e-15 
2358 4 -54.7527 21.1271 0.247187 1 2.22003e-09 
2359 4 -53.1785 22.8871 1.03428 1 3.97785e-08 
2377 4 -53.9656 21.1271 2.60847 1 1.36476e-08 
2908 1 -50.8172 22.3003 1.55902 1 3.68286e-09 
2911 1 -48.456 21.7135 2.08379 1 1.02084e-08 
3437 1 -47.6689 23.4734 0.509621 1 6.57727e-09 
3438 1 -46.8818 21.1267 0.247284 1 6.69915e-09 
3439 1 -45.3077 22.8866 1.03444 1 1.91644e-09 
3457 1 -46.0948 21.1266 2.60861 1 4.47971e-09 
3988 1 -42.9465 22.2997 1.55927 1 4.02272e-09 
3991 1 -40.5853 21.7128 2.08408 1 3.44639e-09 
4517 1 -39.7982 23.4727 0.509909 1 1.87134e-09 
4518 1 -39.0111 21.126 0.247576 1 3.86874e-09 
4519 1 -37.437 22.8859 1.03472 1 2.76842e-09 
4537 1 -38.2241 21.126 2.60888 1 4.50856e-09 
5068 1 -35.0758 22.299 1.55954 1 5.47452e-09 
5071 1 -32.7146 21.7121 2.08435 1 1.1816e-08 
5597 1 -31.9275 23.472 0.510173 1 7.5654e-09 
5598 1 -31.1405 21.1253 0.247804 1 7.7983e-09 
5599 1 -29.5663 22.8852 1.03492 1 6.07857e-09 
5617 1 -30.3534 21.1253 2.60911 1 8.51879e-09 
6148 1 -27.205 22.2984 1.55969 1 2.4801e-08 
6151 1 -24.8438 21.7115 2.08448 1 9.74117e-08 
6677 1 -24.0566 23.4713 0.510331 1 5.11391e-07 
6678 1 -23.2695 21.1246 0.247991 1 5.0729e-07 
6679 1 -21.6952 22.8843 1.03518 1 2.17435e-06 
6697 1 -22.4825 21.1246 2.60929 1 3.52767e-07 
7224 1 -19.3336 22.2971 1.56006 1 9.29314e-06 
7227 1 -16.9715 21.7097 2.08502 1 3.87258e-05 
7711 1 -16.1876 23.4703 0.51039 1 1.4887e-05 
7712 1 -15.3968 21.1225 0.24872 1 7.7938e-05 
7713 1 -13.8273 22.8828 1.03514 1 5.47481e-05 
7731 1 -14.6083 21.1218 2.61024 1 0.000161705 
8135 1 -11.4672 22.295 1.55997 1 0.000202041 
8138 1 -9.10676 21.7064 2.08506 1 0.000934311 
8413 1 -8.3391 23.4779 0.506281 1 0.00953732 
8415 1 -6.00962 22.8856 1.02946 1 0.0495599 
8580 1 -3.68064 22.3379 1.56073 5 0.90658 
8583 1 -1.35744 22.0553 1.9244 5 5.99923 
8616 1 0.0500077 23.4593 0.143626 5 5.79974 
9353 2 0.889316 23.4816 2.39755 5 4.61524 
9323 2 2.07533 21.767 0.826892 1 0.70894 
9862 2 4.38318 22.3204 1.25318 1 0.0903746 
9865 2 6.73495 22.8878 1.76737 1 0.00902823 
10372 2 7.53173 21.1245 0.194853 1 0.00474635 
10373 2 8.3173 21.1269 2.55901 1 0.00397998 
10414 2 9.0859 23.4731 2.29223 1 0.00156786 
10375 2 9.87935 21.7109 0.719696 1 0.0012166 
10941 2 12.234 22.2959 1.24422 1 0.000309124 
10944 2 14.592 22.8814 1.76881 1 7.91623e-05 
11453 2 16.1634 21.1202 2.55553 1 6.91827e-06 
11494 2 16.9516 23.4674 2.29343 1 2.04836e-05 
11455 2 17.7368 21.7066 0.718944 1 4.72824e-06 
12021 2 20.0982 22.2933 1.24374 1 9.48163e-07 
12024 2 22.4595 22.8799 1.76851 1 2.04036e-07 
12574 2 24.8207 23.4664 2.29325 1 4.6204e-08 
12535 2 25.6076 21.7064 0.719045 1 1.50049e-07 
1276 4 -61.8366 25.2338 1.29665 5 12.3904 
1809 4 -59.4753 24.6471 1.82138 1 8.01004e-16 
1826 4 -57.114 24.0605 2.34611 1 1.001e-15 
2342 4 -56.3269 25.8205 0.771918 1 1.09801e-15 
2355 4 -53.9656 25.2338 1.29665 1 1.14174e-08 
2889 1 -51.6043 24.647 1.82138 1 6.93789e-09 
2906 1 -49.2431 24.0602 2.34614 1 5.98592e-09 
3422 1 -48.456 25.8202 0.771969 1 5.20655e-09 
3435 1 -46.0948 25.2333 1.29678 1 3.40652e-09 
3969 1 -43.7336 24.6464 1.82161 1 6.32859e-09 
3986 1 -41.3724 24.0595 2.34641 1 6.11101e-09 
4502 1 -40.5853 25.8195 0.772248 1 1.89017e-09 
4515 1 -38.2241 25.2326 1.29705 1 1.23413e-09 
5049 1 -35.8629 24.6457 1.82187 1 6.13974e-09 
5066 1 -33.5016 24.0588 2.34669 1 1.08098e-08 
5582 1 -32.7146 25.8188 0.772528 1 1.44091e-08 
5595 1 -30.3533 25.2319 1.29729 1 1.37885e-08 
6129 1 -27.9921 24.6451 1.82205 1 5.0404e-08 
6146 1 -25.6308 24.0582 2.34683 1 2.29531e-07 
6662 1 -24.844 25.8181 0.772616 1 7.47399e-08 
6675 1 -22.4828 25.2312 1.29743 1 2.76994e-07 
7205 1 -20.1217 24.6442 1.82223 1 1.21874e-06 
7222 1 -17.7606 24.057 2.34704 1 5.24879e-06 
7696 1 -16.9755 25.8178 0.772539 1 4.45357e-05 
7709 1 -14.6166 25.2312 1.2969 1 0.0001846 
8116 1 -12.2599 24.6449 1.82067 1 0.00076295 
8133 1 -9.90716 24.0603 2.34326 1 0.0031757 
8398 1 -9.09672 25.8191 0.770268 1 0.000795827 
8411 1 -6.73002 25.2356 1.2904 1 0.00770231 
8561 1 -4.37713 24.6152 1.83816 5 0.498602 
8562 1 -3.55678 26.3163 0.227375 1 0.443193 
8563 1 -2.83387 26.3186 2.55908 5 2.06139 
8564 1 -2.56716 24.0647 0.197024 5 1.97442 
8614 1 -0.914089 25.6842 1.06076 5 3.0062 
9350 2 1.84856 25.7777 1.94909 5 0.774591 
9351 2 2.60547 24.0416 0.362981 1 0.595069 
9352 2 3.52434 26.3309 0.20099 1 0.1393 
9399 2 4.32351 26.3525 2.55519 1 0.0657284 
9861 2 5.09328 24.6182 0.969386 1 0.0528167 
9904 2 7.47987 25.2244 1.50232 1 0.00578664 
10411 2 9.85417 25.8134 2.02858 1 0.00114836 
10412 2 10.6598 24.0583 0.456685 1 0.000904119 
10940 2 13.0176 24.6426 0.981411 1 0.000192646 
10983 2 15.3771 25.228 1.50618 1 4.12753e-05 
11491 2 17.7376 25.814 2.03089 1 8.82348e-06 
11492 2 18.525 24.0536 0.45679 1 5.63772e-06 
12020 2 20.8858 24.6401 0.981488 1 1.54424e-06 
12063 2 23.2468 25.2266 1.5062 1 4.34376e-07 
12571 2 25.6079 25.8131 2.03092 1 1.32838e-07 
12572 2 26.3948 24.053 0.456687 1 5.79513e-08 
12573 2 27.182 26.3997 0.19434 1 2.7171e-08 
1267 4 -62.6237 27.5805 1.55901 5 30.976 
1808 4 -60.2624 26.9938 2.08374 1 1.201e-15 
1800 4 -59.4753 28.7538 0.509552 1 1.19701e-15 
1810 4 -58.6882 26.4071 0.247187 1 6.96016e-16 
1811 4 -57.9011 26.4071 2.60847 1 5e-16 
2341 4 -57.114 28.1671 1.03428 1 4.98007e-16 
2343 4 -54.7527 27.5805 1.55901 1 2.44066e-09 
2888 1 -52.3914 26.9937 2.08375 1 1.14553e-08 
2880 1 -51.6043 28.7537 0.509564 1 5.95376e-09 
2890 1 -50.8172 26.407 0.247193 1 6.63433e-09 
2891 1 -50.0302 26.4069 2.6085 1 4.69633e-09 
3421 1 -49.2431 28.1669 1.03431 1 8.95594e-09 
3423 1 -46.8818 27.58 1.55911 1 3.80763e-09 
3960 1 -43.7336 28.7531 0.509757 1 6.71543e-09 
3968 1 -44.5206 26.9932 2.08393 1 9.72023e-10 
3970 1 -42.9465 26.4063 0.247429 1 3.74592e-09 
3971 1 -42.1594 26.4063 2.60875 1 9.24672e-10 
4501 1 -41.3723 28.1662 1.03458 1 1.95897e-09 
4503 1 -39.0111 27.5793 1.5594 1 3.93943e-09 
5040 1 -35.8628 28.7524 0.510035 1 4.92519e-09 
5048 1 -36.6499 26.9925 2.0842 1 7.82185e-09 
5050 1 -35.0758 26.4057 0.247706 1 9.31341e-09 
5051 1 -34.2887 26.4056 2.60903 1 5.72468e-09 
5581 1 -33.5016 28.1655 1.03486 1 7.10951e-09 
5583 1 -31.1404 27.5786 1.55964 1 7.02179e-09 
6120 1 -27.9923 28.7518 0.510192 1 5.95685e-08 
6128 1 -28.7792 26.9918 2.0844 1 9.30275e-09 
6130 1 -27.2051 26.405 0.247847 1 1.67773e-08 
6131 1 -26.418 26.4049 2.60916 1 5.16489e-08 
6661 1 -25.6311 28.1649 1.03495 1 2.24735e-07 
6663 1 -23.2701 27.5781 1.55973 1 8.58629e-07 
7196 1 -20.1217 28.7512 0.510376 1 1.92508e-06 
7204 1 -20.9093 26.9912 2.08449 1 3.27566e-06 
7206 1 -19.3356 26.4045 0.24791 1 1.06142e-05 
7207 1 -18.5488 26.4043 2.6092 1 1.31792e-05 
7695 1 -17.7608 28.1643 1.03509 1 8.30708e-06 
7697 1 -15.4001 27.5776 1.55963 1 3.49768e-05 
8107 1 -12.2426 28.7481 0.511947 1 0.000331462 
8115 1 -13.0402 26.9912 2.08364 1 0.000144304 
8117 1 -11.4613 26.4042 0.247582 1 0.000185849 
8118 1 -10.682 26.4054 2.60652 1 0.000599107 
8397 1 -9.87479 28.1593 1.03791 1 0.000958781 
8399 1 -7.50179 27.5753 1.56347 1 0.00300299 
8552 1 -4.31373 28.755 0.521121 1 0.164419 
8560 1 -5.12992 27.0035 2.06996 1 0.0531166 
8613 1 -2.00334 27.9758 0.977467 1 1.13498 
8975 2 0.448434 27.6501 1.33008 5 4.97641 
9397 2 2.86174 28.0994 1.77728 1 0.177346 
9400 2 5.17515 28.7494 2.29734 1 0.0129704 
9902 2 5.89537 26.974 0.721639 1 0.013474 
9905 2 8.27329 27.5684 1.24262 1 0.00305109 
10413 2 11.4347 26.4009 0.193489 1 0.00022705 
10458 2 10.6443 28.1577 1.76735 1 0.00082481 
10460 2 12.2216 26.4002 2.55433 1 0.000264689 
10461 2 13.0102 28.7459 2.29244 1 0.000208651 
10981 2 13.7988 26.9874 0.718482 1 5.43718e-05 
10984 2 16.1614 27.5737 1.24344 1 1.39587e-05 
11493 2 19.3118 26.4004 0.194392 1 5.58177e-06 
11538 2 18.5233 28.1601 1.76832 1 3.64687e-06 
11540 2 20.0985 26.4003 2.55561 1 1.89064e-06 
11541 2 20.8849 28.7467 2.29314 1 9.86737e-07 
12061 2 21.6727 26.9868 0.719102 1 1.3138e-06 
12064 2 24.0338 27.5732 1.24383 1 3.48296e-07 
12618 2 26.3949 28.1598 1.76855 1 1.00461e-07 
1795 4 -61.0495 29.3405 2.34611 5 6.1952 
1796 4 -60.2624 31.1005 0.771918 1 1.09633e-15 
2335 4 -57.9011 30.5138 1.29665 1 3.0061e-16 
2339 4 -55.5398 29.9271 1.82138 1 8.01006e-16 