ITEM: TIMESTEP
0
ITEM: NUMBER OF ATOMS
35136
ITEM: BOX BOUNDS ss pp pp
-64.0873 115.808
0 41.6492
0 51.0096
ITEM: ATOMS id type x y z c_cna c_csd 
8 4 -62.6502 1.40433 1.55411 5 12.3904 
11 4 -60.4946 1.99932 0.461051 1 1.10427e-15 
75 4 -58.3391 1.40433 1.55411 1 5.98128e-16 
76 4 -56.1835 1.99932 0.461051 1 2.05153e-09 
196 1 -54.028 1.40434 1.55414 1 4.22093e-09 
199 1 -51.8724 1.99936 0.461117 1 3.19637e-09 
467 1 -49.7168 1.40441 1.55421 1 5.86326e-09 
468 1 -47.5612 1.99942 0.46116 1 6.0396e-09 
840 1 -45.4056 1.40446 1.55425 1 5.68656e-09 
843 1 -43.2501 1.9995 0.461213 1 7.16955e-09 
1429 1 -41.0945 1.40455 1.5543 1 9.67334e-09 
1430 1 -38.9389 1.99957 0.461276 1 1.91986e-08 
2081 1 -36.7834 1.40459 1.55437 1 2.58419e-08 
2084 1 -34.6278 1.99955 0.461337 1 4.72498e-08 
2883 1 -32.4724 1.40455 1.55445 1 7.97068e-08 
2884 1 -30.3168 1.99951 0.461405 1 1.46691e-07 
3673 1 -28.1615 1.40458 1.55455 1 2.1606e-07 
3676 1 -26.0059 1.99959 0.461465 1 4.03553e-07 
4545 1 -23.851 1.40472 1.55468 1 6.40083e-07 
4546 1 -21.6955 1.99977 0.461595 1 1.14444e-06 
5353 1 -19.5411 1.40502 1.55501 1 1.84045e-06 
5356 1 -17.3857 2.0003 0.461977 1 4.15647e-06 
6225 1 -15.2319 1.40566 1.55562 1 7.09052e-06 
6226 1 -13.0767 2.00177 0.462671 1 3.59134e-05 
7033 1 -10.9225 1.40606 1.55592 1 0.000121716 
7036 1 -8.76652 2.00573 0.466167 1 0.000937166 
7905 1 -6.59505 1.40145 1.55173 1 0.0137644 
7906 1 -4.42334 2.00189 0.43697 1 0.0824811 
8713 1 -2.36055 1.41801 1.5159 1 0.434369 
8716 1 -0.0341451 2.20315 0.391021 2 4.32377 
12856 2 1.5585 0.497488 1.13878 1 0.399996 
13146 2 4.34739 2.39665 0.0974784 1 0.229607 
13158 2 3.74397 1.16599 2.19862 1 0.0448572 
13159 2 5.84471 0.588284 1.11022 1 0.0355858 
13596 2 8.00082 1.18582 2.22885 1 0.0072629 
13597 2 8.73698 2.36804 0.174285 1 0.00338364 
13600 2 10.1747 0.584465 1.14778 1 0.000529355 
14214 2 12.3277 1.18395 2.23977 1 0.000164673 
14177 2 13.0532 2.3706 0.177499 1 0.000118855 
14215 2 14.4909 0.586637 1.14847 1 4.88621e-05 
14922 2 16.6463 1.18269 2.24024 1 2.81747e-05 
14923 2 17.3688 2.37137 0.177065 1 1.52556e-05 
14926 2 18.8059 0.586523 1.14796 1 9.48784e-06 
15714 2 21.6826 2.37087 0.176493 1 4.34924e-06 
15768 2 20.9617 1.18149 2.24035 1 6.00609e-06 
15769 2 23.1193 0.585898 1.14776 1 2.50469e-06 
16578 2 25.275 1.18077 2.24054 1 1.29074e-06 
1 4 -64.0872 4.37927 0.339599 5 30.976 
7 4 -64.0872 3.1893 2.52573 5 30.976 
9 4 -61.9317 3.78429 1.43266 1 1.49846e-15 
51 4 -59.7761 3.1893 2.52573 1 3e-16 
54 4 -59.7761 4.37927 0.339599 1 6.03369e-16 
55 4 -57.6206 3.78429 1.43266 1 1.19846e-15 
165 4 -55.465 4.37927 0.339599 1 4.69205e-09 
195 4 -55.465 3.1893 2.52573 1 4.91759e-09 
197 1 -53.3094 3.78431 1.43269 1 1.2931e-09 
419 1 -51.1539 3.18936 2.5258 1 1.28511e-09 
422 1 -51.1539 4.37934 0.339666 1 1.746e-09 
423 1 -48.9983 3.78438 1.43275 1 1.48584e-09 
785 1 -46.8427 4.37939 0.339704 1 3.97241e-09 
839 1 -46.8427 3.18941 2.52584 1 5.86368e-09 
841 1 -44.6871 3.78444 1.4328 1 6.46447e-09 
1364 1 -42.5316 3.1895 2.5259 1 7.39359e-09 
1367 1 -42.5316 4.37949 0.33977 1 1.0065e-08 
1368 1 -40.376 3.78454 1.43287 1 1.1896e-08 
2018 1 -38.2204 4.37956 0.339854 1 2.77467e-08 
2080 1 -38.2205 3.18959 2.52598 1 1.65732e-08 
2082 1 -36.0649 3.78459 1.43293 1 4.14895e-08 
2818 1 -33.9095 3.18961 2.52603 1 7.15127e-08 
2821 1 -33.9093 4.37954 0.339881 1 7.46412e-08 
2822 1 -31.7539 3.78457 1.43299 1 1.15939e-07 
3610 1 -29.5981 4.37952 0.339985 1 1.58086e-07 
3672 1 -29.5986 3.18964 2.52616 1 1.53374e-07 
3674 1 -27.4429 3.78462 1.43316 1 1.9746e-07 
4480 1 -25.2878 3.18976 2.5264 1 2.62371e-07 
4483 1 -25.287 4.37958 0.340139 1 2.85872e-07 
4484 1 -23.1321 3.78479 1.43339 1 3.80041e-07 
5290 1 -20.9761 4.3798 0.340388 1 8.47733e-07 
5352 1 -20.9773 3.19003 2.52678 1 6.48158e-07 
5354 1 -18.8214 3.78516 1.43384 1 1.67768e-06 
6160 1 -16.6669 3.19044 2.52758 1 4.40812e-06 
6163 1 -16.6651 4.38036 0.340884 1 6.92058e-06 
6164 1 -14.5106 3.78573 1.43473 1 1.84994e-05 
6970 1 -12.3531 4.38182 0.342668 1 8.77389e-05 
7032 1 -12.3559 3.19 2.52881 1 8.51205e-05 
7034 1 -10.197 3.78573 1.43801 1 0.000368801 
7840 1 -8.03624 3.1811 2.53312 1 0.00403233 
7843 1 -8.03587 4.38603 0.353277 1 0.00237208 
7844 1 -5.86042 3.77035 1.45349 1 0.0247016 
8650 1 -3.71579 4.36792 0.332311 1 0.0938202 
8714 1 -1.69325 3.72279 1.42657 5 5.44408 
12855 2 0.318122 3.51395 2.50653 5 6.91109 
13142 2 0.681874 4.66038 0.345606 2 3.95659 
13143 2 2.26305 2.92492 1.21944 1 0.225972 
13156 2 4.40913 3.55635 2.32465 1 0.015639 
13574 2 5.0355 4.78226 0.229421 1 0.204542 
13595 2 6.53371 2.97554 1.23318 1 0.039536 
13598 2 8.70566 3.56838 2.34478 1 0.00776905 
14173 2 9.4487 4.75694 0.297069 1 0.0033437 
14174 2 10.8862 2.96868 1.26663 1 0.000612689 
14212 2 13.0437 3.56479 2.35877 1 0.000219875 
14875 2 13.7711 4.75283 0.298064 1 0.000109023 
14921 2 15.2079 2.9676 1.26893 1 5.26121e-05 
14924 2 17.365 3.56247 2.36093 1 2.5966e-05 
15710 2 18.088 4.75148 0.297736 1 1.39139e-05 
15711 2 19.5245 2.96653 1.26906 1 8.78131e-06 
15766 2 21.6809 3.56115 2.36151 1 3.91392e-06 
16525 2 22.4017 4.7506 0.297432 1 2.78458e-06 
16577 2 23.8382 2.96572 1.26902 1 1.83159e-06 
2 4 -63.3687 6.75923 0.218148 5 18.5856 
3 4 -63.3687 5.56925 2.40428 5 18.5856 
35 4 -61.2131 6.16424 1.31121 1 1.50154e-15 
38 4 -59.0576 6.75923 0.218148 1 4.01689e-16 
52 4 -59.0576 5.56925 2.40428 1 2e-16 
164 4 -56.902 6.16424 1.31121 1 1.50154e-15 
166 4 -54.7465 6.75923 0.218148 1 9.43215e-09 
167 4 -54.7465 5.56925 2.40428 1 9.45757e-09 
379 1 -52.5909 6.16428 1.31124 1 1.197e-09 
382 1 -50.4353 6.75931 0.218205 1 1.31822e-09 
420 1 -50.4353 5.56932 2.40434 1 1.71321e-09 
784 1 -48.2798 6.16435 1.31129 1 1.75183e-09 
786 1 -46.1242 6.75938 0.218245 1 4.85572e-09 
787 1 -46.1242 5.56939 2.40437 1 7.86719e-09 
1301 1 -43.9686 6.16444 1.31133 1 1.1292e-08 
1304 1 -41.813 6.75948 0.21834 1 1.34757e-08 
1365 1 -41.8131 5.56949 2.40445 1 1.41054e-08 
2017 1 -39.6575 6.16453 1.31146 1 1.90293e-08 
2019 1 -37.5018 6.75951 0.218449 1 2.6117e-08 
2020 1 -37.502 5.56957 2.40457 1 2.73898e-08 
2754 1 -35.3463 6.16453 1.31152 1 3.44747e-08 
2757 1 -33.1906 6.75946 0.218483 1 5.70473e-08 
2819 1 -33.1909 5.56958 2.40462 1 6.33007e-08 
3609 1 -31.0351 6.16452 1.31161 1 8.47906e-08 
3611 1 -28.8792 6.75942 0.218627 1 1.45873e-07 
3612 1 -28.8798 5.56961 2.4048 1 1.17998e-07 
4416 1 -26.7239 6.16454 1.31183 1 1.85792e-07 
4419 1 -24.5678 6.75944 0.218812 1 3.93319e-07 
4481 1 -24.5688 5.56971 2.40511 1 2.8956e-07 
5289 1 -22.4127 6.16469 1.3121 1 7.80258e-07 
5291 1 -20.2563 6.75957 0.219005 1 2.27929e-06 
5292 1 -20.2578 5.56998 2.40552 1 2.13208e-06 
6096 1 -18.1014 6.16503 1.31241 1 6.8443e-06 
6099 1 -15.9441 6.75992 0.219156 1 2.29161e-05 
6161 1 -15.947 5.57026 2.40615 1 1.28571e-05 
6969 1 -13.7898 6.16538 1.31316 1 4.20735e-05 
6971 1 -11.6307 6.76079 0.221053 1 0.000150176 
6972 1 -11.6356 5.56936 2.40771 1 0.000144038 
7776 1 -9.47597 6.16562 1.31856 1 0.000632523 
7779 1 -7.31711 6.76654 0.232665 1 0.00312145 
7841 1 -7.31927 5.55591 2.41952 1 0.00414729 
8649 1 -5.1634 6.14611 1.34237 1 0.0182049 
8651 1 -3.02484 6.73862 0.25147 1 0.104512 
8652 1 -3.06618 5.49079 2.51656 5 5.20371 
9456 1 -1.04398 6.02375 1.42428 5 6.59557 
13140 2 1.39618 7.10253 0.380235 5 3.98489 
13144 2 2.92334 5.33749 1.33854 1 0.105224 
13572 2 3.60442 7.7305 1.49002 1 0.0699827 
13591 2 5.09016 5.94202 2.45247 1 0.0119632 
13575 2 5.76074 7.15562 0.385851 1 0.100963 
13593 2 7.23845 5.35811 1.36082 1 0.0324725 
14169 2 7.96831 7.73529 1.495 1 0.0145871 
14170 2 9.42297 5.94707 2.46645 1 0.00593826 
14171 2 10.1682 7.14117 0.419827 1 0.00241278 
14175 2 11.6038 5.35106 1.387 1 0.000610418 
14873 2 12.3284 7.73022 1.50851 1 0.000345976 
14876 2 14.492 7.13319 0.418247 1 6.79254e-05 
14917 2 13.765 5.94375 2.47917 1 0.000157132 
14919 2 15.9279 5.34758 1.38935 1 3.98599e-05 
15706 2 16.65 7.72656 1.50987 1 1.77954e-05 
15707 2 18.0859 5.94154 2.48166 1 1.32185e-05 
15708 2 18.8084 7.13097 0.418148 1 7.43707e-06 
15712 2 20.2444 5.34608 1.38988 1 5.11168e-06 
16523 2 20.9648 7.7254 1.51071 1 2.73316e-06 
16526 2 23.1213 7.13019 0.418316 1 1.48483e-06 
16573 2 22.4009 5.94057 2.48257 1 1.75457e-06 
16575 2 24.5575 5.34538 1.39013 1 9.38334e-07 
17386 2 25.2769 7.72507 1.51129 1 7.14641e-07 
24 4 -62.6502 9.13918 0.0966963 5 12.3904 
26 4 -61.9317 10.3292 2.16137 1 1.40224e-15 
34 4 -62.6502 7.94921 2.28282 5 12.3904 
36 4 -60.4946 8.54419 1.18976 1 1.00254e-15 
136 4 -58.3391 7.94921 2.28282 1 7.00022e-16 
137 4 -57.6206 10.3292 2.16137 1 1.10224e-15 
139 4 -58.3391 9.13918 0.0966963 1 3.99865e-16 
140 4 -56.1835 8.54419 1.18976 1 1.02774e-09 
344 1 -54.028 9.1392 0.0967088 1 2.28949e-09 
378 1 -54.028 7.94922 2.28283 1 1.94441e-09 
346 1 -53.3094 10.3292 2.16139 1 8.31091e-10 
380 1 -51.8724 8.54425 1.18979 1 9.54458e-10 
732 1 -49.7168 7.94929 2.28288 1 1.37546e-09 
733 1 -48.9983 10.3293 2.16143 1 7.38723e-10 
735 1 -49.7168 9.13929 0.0967514 1 1.45102e-09 
736 1 -47.5613 8.54432 1.18983 1 2.34777e-09 
1242 1 -45.4057 9.13935 0.0967898 1 1.1412e-08 
1244 1 -44.6871 10.3293 2.16146 1 1.55971e-08 
1300 1 -45.4057 7.94937 2.28291 1 9.11425e-09 
1302 1 -43.2501 8.54443 1.18989 1 1.54066e-08 
1950 1 -41.0945 7.94948 2.28303 1 1.15557e-08 
1953 1 -41.0944 9.13946 0.0969329 1 1.53199e-08 
1951 1 -40.3759 10.3294 2.16163 1 1.36965e-08 
1954 1 -38.9389 8.54449 1.19006 1 1.92984e-08 
2690 1 -36.7832 9.13943 0.0970508 1 2.3195e-08 
2692 1 -36.0647 10.3294 2.16178 1 2.98793e-08 
2753 1 -36.7833 7.94951 2.28317 1 2.20395e-08 
2755 1 -34.6276 8.54443 1.19012 1 3.48827e-08 
3542 1 -32.4721 7.94948 2.28324 1 6.45383e-08 
3543 1 -31.7534 10.3293 2.16189 1 9.7754e-08 
3545 1 -32.4718 9.13932 0.0971113 1 6.9641e-08 
3546 1 -30.3163 8.54438 1.19025 1 1.19408e-07 
4352 1 -28.1603 9.13924 0.0972663 1 2.51178e-07 
4415 1 -28.1609 7.94948 2.28348 1 1.7226e-07 
4354 1 -27.4421 10.3293 2.16214 1 2.80585e-07 
4417 1 -26.0049 8.54436 1.19048 1 3.79548e-07 
5222 1 -23.8497 7.94955 2.2838 1 7.19404e-07 
5223 1 -23.1309 10.3293 2.16244 1 1.14115e-06 
5225 1 -23.8487 9.13916 0.0973991 1 8.68413e-07 
5226 1 -21.6935 8.54443 1.19067 1 1.98759e-06 
6032 1 -19.5367 9.1391 0.0973199 1 5.49772e-06 
6034 1 -18.8203 10.3294 2.16258 1 5.06936e-06 
6095 1 -19.5387 7.94974 2.28411 1 4.30718e-06 
6097 1 -17.382 8.54462 1.19062 1 1.38174e-05 
6902 1 -15.2285 7.94988 2.28444 1 1.36439e-05 
6903 1 -14.5119 10.3295 2.16267 1 1.96735e-05 
6905 1 -15.2242 9.13906 0.0967132 1 4.92831e-05 
6906 1 -13.0716 8.54469 1.19095 1 4.75109e-05 
7712 1 -10.9131 9.13873 0.0973157 1 0.000206378 
7714 1 -10.2081 10.3314 2.16313 1 0.000353187 
7775 1 -10.9198 7.94957 2.28619 1 0.000165696 
7777 1 -8.76412 8.54722 1.19549 1 0.000982816 
8582 1 -6.62257 7.93946 2.29993 1 0.00430653 
8583 1 -5.93254 10.3327 2.17155 1 0.0137127 
8585 1 -6.60537 9.14618 0.10497 1 0.00609851 
8586 1 -4.48541 8.53344 1.22256 1 0.0290968 
9455 1 -2.44903 7.87113 2.42296 5 4.67326 
9392 1 -2.31583 9.119 0.206865 1 0.153319 
9394 1 -1.81493 10.2776 2.38729 5 5.0574 
9457 1 -0.381197 8.32382 1.47673 5 6.9759 
13571 2 2.13934 9.51361 0.507698 5 1.06714 
13573 2 4.34454 10.1121 1.63724 1 0.0503326 
14144 2 6.52077 9.52594 0.535897 1 0.022414 
14167 2 8.71596 10.1091 1.6275 1 0.00321495 
14872 2 10.8952 9.51895 0.54096 1 0.00109337 
14874 2 13.0563 10.1074 1.63021 1 0.000163931 
15660 2 15.215 9.51193 0.53842 1 2.95983e-05 
15704 2 17.3724 10.1053 1.63081 1 1.25432e-05 
16522 2 19.529 9.51024 0.538824 1 4.63572e-06 
16524 2 21.6847 10.1049 1.63188 1 2.71243e-06 
17340 2 23.8406 9.50987 0.539448 1 1.2131e-06 
23 4 -64.0872 10.9241 1.06831 5 30.976 
115 4 -61.2131 12.7091 2.03992 1 1.20156e-15 
116 4 -59.7761 10.9241 1.06831 1 7.02216e-16 
312 4 -56.902 12.7091 2.03992 1 1.20156e-15 
343 4 -55.465 10.9241 1.06831 1 3.96247e-09 
687 1 -52.5909 12.7092 2.03994 1 1.71851e-09 
688 1 -51.1539 10.9242 1.06835 1 1.42536e-09 
1186 1 -48.2798 12.7092 2.03998 1 2.73853e-09 
1241 1 -46.8427 10.9243 1.06838 1 7.47978e-09 
1885 1 -43.9685 12.7093 2.04006 1 6.30707e-09 
1886 1 -42.5315 10.9244 1.06849 1 1.27835e-08 
2623 1 -39.6573 12.7094 2.04024 1 1.8975e-08 
2689 1 -38.2202 10.9244 1.06865 1 2.35966e-08 
3477 1 -35.346 12.7093 2.04037 1 4.22611e-08 
3478 1 -33.9089 10.9243 1.06874 1 5.95084e-08 
4285 1 -31.0348 12.7092 2.04051 1 1.28158e-07 
4351 1 -29.5975 10.9242 1.06888 1 2.0342e-07 
5157 1 -26.7236 12.7091 2.04074 1 3.77158e-07 
5158 1 -25.2861 10.9241 1.0691 1 6.53579e-07 
5965 1 -22.4127 12.709 2.04097 1 1.35208e-06 
6031 1 -20.9747 10.9241 1.06911 1 3.15037e-06 
6837 1 -18.1029 12.709 2.04095 1 5.68718e-06 
6838 1 -16.664 10.9241 1.06863 1 1.66677e-05 
7645 1 -13.7969 12.7094 2.04044 1 5.35713e-05 
7711 1 -12.3569 10.9238 1.06818 1 8.2413e-05 
8517 1 -9.49656 12.7143 2.03578 1 0.000872998 
8518 1 -8.05454 10.9292 1.06727 1 0.00256583 
9325 1 -5.23312 12.7324 2.03661 1 0.0431253 
9391 1 -3.78269 10.9303 1.11019 1 0.0801923 
9393 1 -1.55671 11.5095 0.171985 1 0.510461 
10179 1 -1.13034 12.6752 2.42405 2 5.99041 
13138 2 0.29746 10.5875 1.5972 5 6.93485 
13567 2 1.02811 12.8137 1.73783 5 6.01034 
13569 2 2.95161 11.9059 0.653083 1 0.389112 
14142 2 5.12649 12.4858 1.76791 1 0.0233193 
14145 2 7.289 11.8943 0.665772 1 0.00353685 
14868 2 9.46239 12.4837 1.75389 1 0.000681071 
14870 2 11.6242 11.894 0.661144 1 0.000413111 
15658 2 13.782 12.4851 1.7522 1 0.000115016 
15661 2 15.9372 11.8905 0.659365 1 2.37357e-05 
16518 2 18.0929 12.4848 1.75245 1 1.24954e-05 
16520 2 20.2486 11.8898 0.660146 1 4.0366e-06 
17338 2 22.4035 12.4848 1.7535 1 1.75997e-06 
17341 2 24.5592 11.8898 0.660964 1 7.76195e-07 
19 4 -63.3687 13.3041 0.946857 5 18.5856 
103 4 -60.4946 15.0891 1.91847 1 1.30154e-15 
117 4 -59.0576 13.3041 0.946857 1 5.01689e-16 
313 4 -56.1835 15.0891 1.91847 1 1.21669e-09 
315 4 -54.7465 13.3041 0.946857 1 1.08166e-08 
651 1 -51.8724 15.0891 1.91848 1 5.37291e-09 
689 1 -50.4353 13.3042 0.946895 1 2.95504e-09 
1187 1 -47.5612 15.0892 1.91853 1 3.75371e-09 
1189 1 -46.1241 13.3042 0.94695 1 7.22185e-09 
1825 1 -43.25 15.0893 1.91866 1 6.75779e-09 
1887 1 -41.8129 13.3043 0.947099 1 1.19052e-08 
2624 1 -38.9387 15.0893 1.91881 1 2.11758e-08 
2626 1 -37.5016 13.3043 0.94724 1 2.91649e-08 
3416 1 -34.6275 15.0892 1.91894 1 4.92562e-08 
3479 1 -33.1903 13.3042 0.947344 1 8.18111e-08 
4286 1 -30.3163 15.0891 1.91906 1 1.22856e-07 
4288 1 -28.8789 13.304 0.94747 1 2.60104e-07 
5096 1 -26.0053 15.089 1.91924 1 3.78129e-07 
5159 1 -24.5677 13.3039 0.947609 1 8.67148e-07 
5966 1 -21.695 15.0889 1.91938 1 1.34364e-06 
5968 1 -20.2568 13.3037 0.947433 1 3.66592e-06 
6776 1 -17.3863 15.089 1.9192 1 7.88692e-06 
6839 1 -15.9476 13.3037 0.946464 1 1.79502e-05 
7646 1 -13.0822 15.0898 1.91755 1 8.65765e-05 
7648 1 -11.6442 13.3032 0.944143 1 0.000204738 
8456 1 -8.78016 15.096 1.90518 1 0.00231771 
8519 1 -7.3371 13.3097 0.932104 1 0.00938363 
9326 1 -4.50647 15.1328 1.89888 1 0.0827758 
9328 1 -3.04293 13.3274 1.01353 1 0.220425 
12354 1 -0.728981 13.8689 0.278059 5 1.0643 
13565 2 1.78088 15.0265 1.83542 5 5.25427 
14141 2 3.75585 14.2732 0.765177 1 0.147836 
14143 2 5.88935 14.8633 1.88593 1 0.0113298 
14840 2 8.03948 14.2678 0.787011 1 0.00180433 
14866 2 10.1943 14.8622 1.87763 1 0.000491582 
15657 2 12.3483 14.2706 0.782579 1 0.00023366 
15659 2 14.5019 14.8647 1.87486 1 7.83936e-05 
16479 2 16.6565 14.27 0.78143 1 1.68674e-05 
16516 2 18.8108 14.865 1.87471 1 4.7727e-06 
17337 2 20.9667 14.2699 0.782098 1 1.57344e-06 
17339 2 23.1213 14.865 1.87543 1 5.48392e-07 
18159 2 25.2773 14.2699 0.782757 1 3.30204e-07 
91 4 -64.0872 17.469 1.79702 5 30.976 
94 4 -61.9317 18.064 0.703954 1 8.99169e-16 
102 4 -62.6502 15.6841 0.825406 5 12.3904 
288 4 -59.7761 17.469 1.79702 1 8.01563e-16 
289 4 -58.3391 15.6841 0.825406 1 1.00849e-16 
290 4 -57.6206 18.064 0.703954 1 5.99169e-16 
615 4 -55.465 17.469 1.79702 1 3.78752e-09 
650 1 -54.028 15.6841 0.825408 1 3.93009e-09 
618 1 -53.3094 18.064 0.703968 1 2.42082e-09 
1138 1 -51.1538 17.4691 1.79704 1 4.55642e-09 
1139 1 -49.7168 15.6842 0.825442 1 3.9941e-09 
1140 1 -48.9982 18.0641 0.70401 1 3.63423e-09 
1765 1 -46.8427 17.4691 1.7971 1 3.8576e-09 
1768 1 -44.6871 18.0642 0.704093 1 4.35718e-09 
1824 1 -45.4056 15.6842 0.825527 1 5.67005e-09 
2559 1 -42.5315 17.4692 1.79722 1 5.3782e-09 
2560 1 -41.0943 15.6843 0.825674 1 1.29745e-08 
2561 1 -40.3758 18.0642 0.704206 1 7.36292e-09 
3349 1 -38.2202 17.4692 1.79734 1 1.57456e-08 
3352 1 -36.0646 18.0641 0.704319 1 2.69667e-08 
3415 1 -36.7831 15.6842 0.825792 1 2.44696e-08 
4221 1 -33.9091 17.4691 1.79746 1 6.045e-08 
4222 1 -32.4718 15.684 0.825889 1 9.25103e-08 
4223 1 -31.7535 18.064 0.704392 1 1.11733e-07 
5029 1 -29.5981 17.469 1.79754 1 1.35928e-07 
5095 1 -28.1606 15.6839 0.825968 1 2.68288e-07 
5032 1 -27.4425 18.064 0.704414 1 2.77858e-07 
5901 1 -25.2874 17.469 1.79765 1 3.36058e-07 
5902 1 -23.8497 15.6838 0.826011 1 8.20188e-07 
5903 1 -23.132 18.0639 0.704392 1 8.14039e-07 
6709 1 -20.9775 17.469 1.79776 1 1.6574e-06 
6712 1 -18.8227 18.064 0.704115 1 4.64954e-06 
6775 1 -19.5396 15.6837 0.825702 1 3.79749e-06 
7581 1 -16.6696 17.4693 1.79754 1 1.13158e-05 
7582 1 -15.2321 15.6838 0.824276 1 2.24628e-05 
7583 1 -14.516 18.0645 0.702751 1 3.00737e-05 
8389 1 -12.3657 17.4702 1.79518 1 9.33702e-05 
8392 1 -10.2142 18.0643 0.697645 1 0.000586894 
8455 1 -10.9306 15.6832 0.819725 1 0.000364423 
9261 1 -8.05735 17.4744 1.77704 1 0.00554453 
9262 1 -6.60637 15.6866 0.795559 1 0.0278957 
9263 1 -5.87568 18.0646 0.664484 1 0.0526668 
10051 1 -3.77565 17.5245 1.75885 1 0.0933392 
10054 1 -1.5287 18.1608 0.707975 5 4.37856 
10117 1 -2.25142 15.7187 0.893631 1 1.02028 
12355 1 0.117245 16.4189 0.667369 5 4.95895 
14137 2 2.4563 17.283 1.92542 1 0.819949 
14139 2 4.48011 16.6429 0.8705 1 0.0668354 
14838 2 6.61036 17.244 1.99721 1 0.00632549 
14841 2 8.76129 16.6454 0.906618 1 0.000864785 
15653 2 10.9092 17.2437 2.00028 1 0.000218903 
15655 2 13.0641 16.6496 0.905173 1 8.51458e-05 
16477 2 15.2164 17.2456 1.99762 1 2.0204e-05 
16480 2 17.3728 16.6502 0.904084 1 5.27875e-06 
17333 2 19.5271 17.2456 1.99701 1 2.65828e-06 
17335 2 21.6839 16.6502 0.904261 1 1.08265e-06 
18157 2 23.8387 17.2453 1.99735 1 9.34877e-07 
92 4 -63.3687 19.849 1.67557 5 18.5856 
271 4 -61.2131 20.444 0.582502 1 1.09665e-15 
272 4 -59.0576 19.849 1.67557 1 4.00803e-16 
588 4 -56.902 20.444 0.582502 1 1.09665e-15 
616 4 -54.7465 19.849 1.67557 1 1.11654e-08 
1097 1 -52.5909 20.444 0.582546 1 2.19257e-09 
1098 1 -50.4353 19.8491 1.67563 1 2.07846e-09 
1714 1 -48.2797 20.4441 0.582592 1 2.28541e-09 
1766 1 -46.1241 19.8491 1.67568 1 2.97606e-09 
2497 1 -43.9685 20.4441 0.582651 1 4.49302e-09 
2498 1 -41.813 19.8492 1.67576 1 8.58576e-09 
3286 1 -39.6574 20.4442 0.582731 1 1.53395e-08 
3350 1 -37.5018 19.8492 1.67585 1 2.29678e-08 
4159 1 -35.3462 20.4441 0.582826 1 2.8268e-08 
4160 1 -33.1907 19.8491 1.67595 1 6.38659e-08 
4966 1 -31.0352 20.444 0.58288 1 1.07073e-07 
5030 1 -28.8799 19.8491 1.67601 1 1.46197e-07 
5839 1 -26.7244 20.4441 0.58289 1 3.30442e-07 
5840 1 -24.5694 19.8491 1.6761 1 4.9399e-07 
6646 1 -22.4141 20.4441 0.582891 1 1.16086e-06 
6710 1 -20.2598 19.8493 1.67627 1 2.45592e-06 
7519 1 -18.105 20.4445 0.582893 1 5.90435e-06 
7520 1 -15.9518 19.8498 1.67635 1 1.22975e-05 
8326 1 -13.798 20.4455 0.582359 1 3.51309e-05 
8390 1 -11.646 19.8505 1.67463 1 8.95076e-05 
9199 1 -9.4937 20.4471 0.579983 1 0.000771876 
9200 1 -7.32906 19.8505 1.65846 1 0.00966562 
9988 1 -5.15808 20.4516 0.544112 1 0.0649583 
10052 1 -3.07557 19.9076 1.62263 1 0.167743 
10789 1 -0.786133 20.608 0.502805 2 5.17103 
14129 2 0.845555 18.8992 0.965146 5 1.49128 
14135 2 3.07734 19.6119 2.0741 1 0.153986 
14837 2 5.15495 19.0268 0.991264 1 0.035351 
14839 2 7.30583 19.6266 2.11189 1 0.00571703 
15621 2 8.03 20.805 0.0505858 1 0.0031494 
15622 2 9.46812 19.0259 1.02753 1 0.000517294 
15651 2 11.6165 19.6264 2.12127 1 0.000147112 
16445 2 12.3377 20.8127 0.0564114 1 0.000162033 
16476 2 13.7765 19.0301 1.02751 1 5.59962e-05 
16478 2 15.9303 19.6267 2.11933 1 2.13557e-05 
17299 2 16.651 20.8154 0.0558036 1 1.49396e-05 
17300 2 18.0888 19.0307 1.02635 1 8.07376e-06 
17331 2 20.2438 19.626 2.1189 1 5.49095e-06 
18125 2 20.9641 20.8155 0.0552054 1 4.31478e-06 
18156 2 22.4013 19.0304 1.02619 1 2.1872e-06 
18158 2 24.5565 19.6255 2.11906 1 1.45492e-06 
18979 2 25.2761 20.8151 0.054878 1 1.29542e-06 
256 4 -62.6502 22.2289 1.55411 5 12.3904 
259 4 -60.4946 22.8239 0.461051 1 1.20421e-15 
587 4 -58.3391 22.2289 1.55411 1 5.99243e-16 
589 4 -56.1835 22.8239 0.461051 1 2.05217e-09 
1058 1 -54.028 22.2289 1.55414 1 4.2202e-09 
1061 1 -51.8724 22.824 0.461117 1 3.19631e-09 
1713 1 -49.7168 22.229 1.55421 1 5.86322e-09 
1715 1 -47.5612 22.824 0.46116 1 6.0396e-09 
2434 1 -45.4056 22.2291 1.55425 1 5.68654e-09 
2437 1 -43.2501 22.8241 0.461213 1 7.16955e-09 
3285 1 -41.0945 22.2291 1.5543 1 9.67334e-09 
3287 1 -38.9389 22.8242 0.461276 1 1.91986e-08 
4093 1 -36.7834 22.2292 1.55437 1 2.58419e-08 
4096 1 -34.6278 22.8242 0.461337 1 4.72498e-08 
4965 1 -32.4724 22.2292 1.55445 1 7.97068e-08 
4967 1 -30.3168 22.8241 0.461405 1 1.46691e-07 
5773 1 -28.1615 22.2292 1.55455 1 2.1606e-07 
5776 1 -26.0059 22.8242 0.461465 1 4.03553e-07 
6645 1 -23.851 22.2293 1.55468 1 6.40083e-07 
6647 1 -21.6955 22.8244 0.461595 1 1.14444e-06 
7453 1 -19.5411 22.2296 1.55501 1 1.84045e-06 
7456 1 -17.3857 22.8249 0.461977 1 4.15647e-06 
8325 1 -15.2319 22.2303 1.55562 1 7.09051e-06 
8327 1 -13.0767 22.8264 0.462671 1 3.59134e-05 
9133 1 -10.9225 22.2307 1.55592 1 0.000121716 
9136 1 -8.76652 22.8303 0.466167 1 0.000937166 
9987 1 -6.59505 22.226 1.55173 1 0.0137644 
9989 1 -4.42334 22.8265 0.43697 1 0.0824811 
10723 1 -2.36055 22.2426 1.5159 1 0.434369 
10726 1 -0.0341451 23.0278 0.391021 2 4.32377 
14130 2 1.5585 21.3221 1.13878 1 0.399996 
14821 2 4.34739 23.2213 0.0974784 1 0.229607 
14833 2 3.74397 21.9906 2.19862 1 0.0448572 
14835 2 5.84471 21.4129 1.11022 1 0.0355858 
15618 2 8.00082 22.0104 2.22885 1 0.0072629 
15619 2 8.73698 23.1926 0.174285 1 0.00338364 
15623 2 10.1747 21.4091 1.14778 1 0.000529355 
16472 2 12.3277 22.0085 2.23977 1 0.000164673 
16446 2 13.0532 23.1952 0.177499 1 0.000118855 
16474 2 14.4909 21.4112 1.14847 1 4.88621e-05 
17296 2 16.6463 22.0073 2.24024 1 2.81747e-05 
17297 2 17.3688 23.196 0.177065 1 1.52556e-05 
17301 2 18.8059 21.4111 1.14796 1 9.48784e-06 
18126 2 21.6826 23.1955 0.176493 1 4.34924e-06 
18152 2 20.9617 22.0061 2.24035 1 6.00609e-06 
18154 2 23.1193 21.4105 1.14776 1 2.50469e-06 
18976 2 25.275 22.0054 2.24054 1 1.29074e-06 
249 4 -64.0872 25.2039 0.339599 5 30.976 
255 4 -64.0872 24.0139 2.52573 5 30.976 
257 4 -61.9317 24.6089 1.43266 1 1.09846e-15 
563 4 -59.7761 24.0139 2.52573 1 6e-16 
566 4 -59.7761 25.2039 0.339599 1 1.00337e-15 
567 4 -57.6206 24.6089 1.43266 1 7.98463e-16 
1027 4 -55.465 25.2039 0.339599 1 4.69175e-09 
1057 4 -55.465 24.0139 2.52573 1 4.91949e-09 
1059 1 -53.3094 24.6089 1.43269 1 1.29253e-09 
1665 1 -51.1539 24.014 2.5258 1 1.285e-09 
1668 1 -51.1539 25.2039 0.339666 1 1.7459e-09 
1669 1 -48.9983 24.609 1.43275 1 1.48584e-09 
2379 1 -46.8427 25.204 0.339704 1 3.97244e-09 
2433 1 -46.8427 24.014 2.52584 1 5.86368e-09 
2435 1 -44.6871 24.609 1.4328 1 6.4645e-09 
3220 1 -42.5316 24.0141 2.5259 1 7.39359e-09 
3223 1 -42.5316 25.2041 0.33977 1 1.0065e-08 
3224 1 -40.376 24.6091 1.43287 1 1.1896e-08 
4030 1 -38.2204 25.2042 0.339854 1 2.77467e-08 
4092 1 -38.2205 24.0142 2.52598 1 1.65732e-08 
4094 1 -36.0649 24.6092 1.43293 1 4.14895e-08 
4900 1 -33.9095 24.0142 2.52603 1 7.15127e-08 
4903 1 -33.9093 25.2041 0.339881 1 7.46412e-08 
4904 1 -31.7539 24.6092 1.43299 1 1.15939e-07 
5710 1 -29.5981 25.2041 0.339985 1 1.58086e-07 
5772 1 -29.5986 24.0142 2.52616 1 1.53374e-07 
5774 1 -27.4429 24.6092 1.43316 1 1.9746e-07 
6580 1 -25.2878 24.0144 2.5264 1 2.62371e-07 
6583 1 -25.287 25.2042 0.340139 1 2.85872e-07 
6584 1 -23.1321 24.6094 1.43339 1 3.80041e-07 
7390 1 -20.9761 25.2044 0.340388 1 8.47733e-07 
7452 1 -20.9773 24.0146 2.52678 1 6.48158e-07 
7454 1 -18.8214 24.6098 1.43384 1 1.67768e-06 
8260 1 -16.6669 24.015 2.52758 1 4.40812e-06 
8263 1 -16.6651 25.205 0.340884 1 6.92058e-06 
8264 1 -14.5106 24.6103 1.43473 1 1.84994e-05 
9070 1 -12.3531 25.2064 0.342668 1 8.77389e-05 
9132 1 -12.3559 24.0146 2.52881 1 8.51205e-05 
9134 1 -10.197 24.6103 1.43801 1 0.000368801 
9922 1 -8.03624 24.0057 2.53312 1 0.00403233 
9925 1 -8.03587 25.2106 0.353277 1 0.00237208 
9926 1 -5.86042 24.5949 1.45349 1 0.0247016 
10660 1 -3.71579 25.1925 0.332311 1 0.0938202 
10724 1 -1.69325 24.5474 1.42657 5 5.44408 
14128 2 0.318122 24.3386 2.50653 5 6.91109 
14817 2 0.681874 25.485 0.345606 2 3.95659 
14818 2 2.26305 23.7495 1.21944 1 0.225972 
14831 2 4.40913 24.3809 2.32465 1 0.015639 
15596 2 5.0355 25.6069 0.229421 1 0.204542 
15617 2 6.53371 23.8001 1.23318 1 0.039536 
15620 2 8.70566 24.393 2.34478 1 0.00776905 
16442 2 9.4487 25.5815 0.297069 1 0.0033437 
16443 2 10.8862 23.7933 1.26663 1 0.000612689 
16470 2 13.0437 24.3894 2.35877 1 0.000219875 
17271 2 13.7711 25.5774 0.298064 1 0.000109023 
17295 2 15.2079 23.7922 1.26893 1 5.26121e-05 
17298 2 17.365 24.3871 2.36093 1 2.5966e-05 
18122 2 18.088 25.5761 0.297736 1 1.39139e-05 
18123 2 19.5245 23.7911 1.26906 1 8.78131e-06 
18150 2 21.6809 24.3857 2.36151 1 3.91392e-06 
18951 2 22.4017 25.5752 0.297432 1 2.78458e-06 
18975 2 23.8382 23.7903 1.26902 1 1.83159e-06 
250 4 -63.3687 27.5838 0.218148 5 18.5856 
251 4 -63.3687 26.3939 2.40428 5 18.5856 
547 4 -61.2131 26.9888 1.31121 1 1.20154e-15 
550 4 -59.0576 27.5838 0.218148 1 5.01689e-16 
564 4 -59.0576 26.3939 2.40428 1 6e-16 
1026 4 -56.902 26.9888 1.31121 1 1.20154e-15 
1028 4 -54.7465 27.5838 0.218148 1 9.42907e-09 
1029 4 -54.7465 26.3939 2.40428 1 9.45503e-09 
1625 1 -52.5909 26.9889 1.31124 1 1.19695e-09 
1628 1 -50.4353 27.5839 0.218205 1 1.31822e-09 
1666 1 -50.4353 26.3939 2.40434 1 1.71322e-09 
2378 1 -48.2798 26.9889 1.31129 1 1.75184e-09 
2380 1 -46.1242 27.584 0.218245 1 4.85572e-09 
2381 1 -46.1242 26.394 2.40437 1 7.8672e-09 
3157 1 -43.9686 26.989 1.31133 1 1.1292e-08 
3160 1 -41.813 27.5841 0.21834 1 1.34757e-08 
3221 1 -41.8131 26.3941 2.40445 1 1.41054e-08 
4029 1 -39.6575 26.9891 1.31146 1 1.90293e-08 
4031 1 -37.5018 27.5841 0.218449 1 2.6117e-08 
4032 1 -37.502 26.3942 2.40457 1 2.73899e-08 
4836 1 -35.3463 26.9891 1.31152 1 3.44747e-08 
4839 1 -33.1906 27.5841 0.218483 1 5.70474e-08 
4901 1 -33.1909 26.3942 2.40462 1 6.33007e-08 
5709 1 -31.0351 26.9891 1.31161 1 8.47906e-08 
5711 1 -28.8792 27.584 0.218627 1 1.45873e-07 
5712 1 -28.8798 26.3942 2.4048 1 1.17998e-07 
6516 1 -26.7239 26.9891 1.31183 1 1.85792e-07 
6519 1 -24.5678 27.584 0.218812 1 3.93319e-07 
6581 1 -24.5688 26.3943 2.40511 1 2.8956e-07 
7389 1 -22.4127 26.9893 1.3121 1 7.80258e-07 
7391 1 -20.2563 27.5842 0.219005 1 2.27929e-06 
7392 1 -20.2578 26.3946 2.40552 1 2.13208e-06 
8196 1 -18.1014 26.9896 1.31241 1 6.8443e-06 
8199 1 -15.9441 27.5845 0.219156 1 2.29161e-05 
8261 1 -15.947 26.3949 2.40615 1 1.28571e-05 
9069 1 -13.7898 26.99 1.31316 1 4.20735e-05 
9071 1 -11.6307 27.5854 0.221053 1 0.000150176 
9072 1 -11.6356 26.394 2.40771 1 0.000144038 
9858 1 -9.47597 26.9902 1.31856 1 0.000632523 
9861 1 -7.31711 27.5911 0.232665 1 0.00312145 
9923 1 -7.31927 26.3805 2.41952 1 0.00414729 
10659 1 -5.1634 26.9707 1.34237 1 0.0182049 
10661 1 -3.02484 27.5632 0.25147 1 0.104512 
10662 1 -3.06618 26.3154 2.51656 5 5.20371 
11308 1 -1.04398 26.8483 1.42428 5 6.59557 
14815 2 1.39618 27.9271 0.380235 5 3.98489 
14819 2 2.92334 26.1621 1.33854 1 0.105224 
15594 2 3.60442 28.5551 1.49002 1 0.0699827 
15613 2 5.09016 26.7666 2.45247 1 0.0119632 
15597 2 5.76074 27.9802 0.385851 1 0.100963 
15615 2 7.23845 26.1827 1.36082 1 0.0324725 
16438 2 7.96831 28.5599 1.495 1 0.0145871 
16439 2 9.42297 26.7717 2.46645 1 0.00593826 
16440 2 10.1682 27.9658 0.419827 1 0.00241278 
16444 2 11.6038 26.1757 1.387 1 0.000610418 
17269 2 12.3284 28.5548 1.50851 1 0.000345976 
17272 2 14.492 27.9578 0.418247 1 6.79254e-05 
17291 2 13.765 26.7683 2.47917 1 0.000157132 
17293 2 15.9279 26.1722 1.38935 1 3.98599e-05 
18118 2 16.65 28.5512 1.50987 1 1.77954e-05 
18119 2 18.0859 26.7661 2.48166 1 1.32185e-05 
18120 2 18.8084 27.9556 0.418148 1 7.43707e-06 
18124 2 20.2444 26.1707 1.38988 1 5.11168e-06 
18949 2 20.9648 28.55 1.51071 1 2.73316e-06 
18952 2 23.1213 27.9548 0.418316 1 1.48483e-06 
18971 2 22.4009 26.7652 2.48257 1 1.75457e-06 
18973 2 24.5575 26.17 1.39013 1 9.38334e-07 
19798 2 25.2769 28.5497 1.51129 1 7.14641e-07 
536 4 -62.6502 29.9638 0.0966963 5 12.3904 
538 4 -61.9317 31.1538 2.16137 1 1.39922e-15 
546 4 -62.6502 28.7738 2.28282 5 12.3904 
548 4 -60.4946 29.3688 1.18976 1 1.00154e-15 
998 4 -58.3391 28.7738 2.28282 1 7.0002e-16 
999 4 -57.6206 31.1538 2.16137 1 1.09922e-15 
1001 4 -58.3391 29.9638 0.0966963 1 4.00854e-16 
1002 4 -56.1835 29.3688 1.18976 1 1.02892e-09 
1590 1 -54.028 29.9638 0.0967088 1 2.28843e-09 
1624 1 -54.028 28.7738 2.28283 1 1.94355e-09 
1592 1 -53.3094 31.1538 2.16139 1 8.31134e-10 
1626 1 -51.8724 29.3689 1.18979 1 9.5445e-10 
2326 1 -49.7168 28.7739 2.28288 1 1.37542e-09 
2327 1 -48.9983 31.1539 2.16143 1 7.38733e-10 
2329 1 -49.7168 29.9639 0.0967514 1 1.45095e-09 
2330 1 -47.5613 29.3689 1.18983 1 2.34778e-09 
3098 1 -45.4057 29.964 0.0967898 1 1.14121e-08 
3100 1 -44.6871 31.1539 2.16146 1 1.55971e-08 
3156 1 -45.4057 28.774 2.28291 1 9.11427e-09 
3158 1 -43.2501 29.369 1.18989 1 1.54066e-08 
3962 1 -41.0945 28.7741 2.28303 1 1.15557e-08 
3965 1 -41.0944 29.9641 0.0969329 1 1.532e-08 
3963 1 -40.3759 31.154 2.16163 1 1.36965e-08 
3966 1 -38.9389 29.3691 1.19006 1 1.92984e-08 
4772 1 -36.7832 29.964 0.0970508 1 2.3195e-08 
4774 1 -36.0647 31.154 2.16178 1 2.98792e-08 
4835 1 -36.7833 28.7741 2.28317 1 2.20395e-08 
4837 1 -34.6276 29.369 1.19012 1 3.48828e-08 
5642 1 -32.4721 28.7741 2.28324 1 6.45383e-08 
5643 1 -31.7534 31.1539 2.16189 1 9.7754e-08 
5645 1 -32.4718 29.9639 0.0971113 1 6.9641e-08 