11520
energy=-49594.76132143 virial="16.69197835       0.00000000       0.00000000       0.00000000    -218.61382918       0.22459700       0.00000000       0.22459700      -1.33607308" adsorbate_info cutoff=5.30000000 nneightol=1.20000000 pbc="T T T" Lattice="16.98000000       0.00000000       0.00000000       0.00000000      62.51674336       0.00000000       0.00000000       0.00000000     123.04603943" Properties=species:S:1:pos:R:3:n_neighb:I:1:map_shift:I:3:Z:I:1:force:R:3:csp:R:1:cna:I:1
Fe             -0.00000000     -0.02927267     92.14827798      55       0       0      -1      26     -0.00000000     -0.00205431     -0.00045252      0.56886138       0
Fe              1.41500000     15.37530789      2.67841748      58       0       0       0      26     -0.00000000     -0.00006773      0.00031148      0.00000002       3
Fe             -0.00000000     14.09343221      1.14357902      58       0       0       0      26     -0.00000000      0.00003298      0.00001961      0.00000001       3
Fe              1.41500000     12.55678348      2.42263334      58       0       0       0      26     -0.00000000     -0.00004472      0.00029510      0.00000003       3
Fe             -0.00000000     11.27491633      0.88776633      58       0       0       0      26     -0.00000000      0.00005043      0.00002029      0.00000002       3
Fe             -0.00000000     14.00409675     93.26055182      52       0       0      -1      26     -0.00000000      0.00008644      0.00188044      4.64212215       0
Fe              1.41500000     15.59991317     92.14827798      55       0       0      -1      26     -0.00000000     -0.00205431     -0.00045252      0.56886138       0
Fe             -0.00000000     16.91186980     93.51572437      56       0       0      -1      26     -0.00000000     -0.00130856     -0.00186131      0.10652861       3
Fe              1.41500000      9.73834237      2.16688143      58       0       0       0      26     -0.00000000     -0.00005675      0.00024655      0.00000001       3
Fe             -0.00000000     19.74956530     93.54373929      58       0       0      -1      26     -0.00000000     -0.00168117     -0.00083233      0.01563015       3
Fe             -0.00000000      8.45646377      0.63199169      58       0       0       0      26     -0.00000000      0.00003190     -0.00004949      0.00000000       3
Fe             -0.00000000     22.60928064     93.57827703      58       0       0      -1      26     -0.00000000     -0.00281600     -0.00018144      0.02990923       3
Fe              1.41500000      6.91990948      1.91110763      58       0       0       0      26     -0.00000000     -0.00007803      0.00014652      0.00000002       3
Fe             -0.00000000     25.47707098     93.63041089      60       0       0      -1      26     -0.00000000     -0.00335412      0.00663334      4.59181956       3
Fe             -0.00000000      5.63801425      0.37622538      58       0       0       0      26     -0.00000000      0.00000492     -0.00017181      0.00000001       3
Fe             -0.00000000     27.99644724     94.19303415      56       0       0      -1      26     -0.00000000      0.00069734     -0.00195903      5.10609334       0
Fe              1.41500000     29.63328259     93.26055182      52       0       0      -1      26     -0.00000000      0.00008644      0.00188044      4.64212215       0
Fe             -0.00000000     30.95866363     94.69883695      56       0       0      -1      26     -0.00000000      0.00041767      0.00130945      0.01141347       3
Fe              1.41500000      1.28268396     93.51572437      56       0       0      -1      26     -0.00000000     -0.00130856     -0.00186131      0.10652861       3
Fe             -0.00000000      2.61382319     94.89739459      58       0       0      -1      26     -0.00000000     -0.00072077     -0.00097608      0.04083506       3
Fe              1.41500000      4.12037946     93.54373929      58       0       0      -1      26     -0.00000000     -0.00168117     -0.00083233      0.01563015       3
Fe             -0.00000000      5.46733632     94.97292026      58       0       0      -1      26     -0.00000000     -0.00223671     -0.00074411      0.01956613       3
Fe              1.41500000      6.98009480     93.57827703      58       0       0      -1      26     -0.00000000     -0.00281600     -0.00018144      0.02990923       3
Fe             -0.00000000      8.29805870     95.07513710      58       0       0      -1      26     -0.00000000     -0.00452522     -0.00039244      0.11913218       3
Fe              1.41500000      9.84788514     93.63041089      60       0       0      -1      26     -0.00000000     -0.00335412      0.00663334      4.59181956       3
Fe             -0.00000000     10.91015623     95.46466509      56       0       0      -1      26     -0.00000000      0.00236291     -0.00174638      0.25309106       3
Fe              1.41500000     12.36726140     94.19303415      56       0       0      -1      26     -0.00000000      0.00069734     -0.00195903      5.10609334       0
Fe             -0.00000000     13.72830163     95.80916178      57       0       0      -1      26     -0.00000000      0.00015270     -0.00075845      0.05909120       3
Fe              1.41500000     15.32947779     94.69883695      56       0       0      -1      26     -0.00000000      0.00041767      0.00130945      0.01141347       3
Fe             -0.00000000     16.66119348     96.14108535      58       0       0      -1      26     -0.00000000      0.00090844      0.00060232      0.00599187       3
Fe              1.41500000     18.24300903     94.89739459      58       0       0      -1      26     -0.00000000     -0.00072077     -0.00097608      0.04083506       3
Fe             -0.00000000     19.55343710     96.32631331      58       0       0      -1      26     -0.00000000     -0.00090463     -0.00083826      0.02055433       3
Fe              1.41500000     21.09652216     94.97292026      58       0       0      -1      26     -0.00000000     -0.00223671     -0.00074411      0.01956613       3
Fe             -0.00000000     22.38106170     96.45924895      58       0       0      -1      26     -0.00000000     -0.00236673     -0.00096833      0.03028263       3
Fe              1.41500000     23.92724454     95.07513710      58       0       0      -1      26     -0.00000000     -0.00452522     -0.00039244      0.11913218       3
Fe             -0.00000000     25.06986415     96.73053138      58       0       0      -1      26     -0.00000000      0.00002493     -0.00707560      0.04686520       3
Fe              1.41500000     26.53934207     95.46466509      56       0       0      -1      26     -0.00000000      0.00236291     -0.00174638      0.25309106       3
Fe             -0.00000000     27.84434158     97.03922307      58       0       0      -1      26     -0.00000000      0.00009147     -0.00142475      0.00550464       3
Fe              1.41500000     29.35748747     95.80916178      57       0       0      -1      26     -0.00000000      0.00015270     -0.00075845      0.05909120       3
Fe             -0.00000000     30.70418769     97.34012007      59       0       0      -1      26     -0.00000000     -0.00003866     -0.00107033      0.01025969       3
Fe              1.41500000      1.03200764     96.14108535      58       0       0      -1      26     -0.00000000      0.00090844      0.00060232      0.00599187       3
Fe             -0.00000000      2.34486014     97.60836975      58       0       0      -1      26     -0.00000000     -0.00004967     -0.00080021      0.00564242       3
Fe              1.41500000      3.92425126     96.32631331      58       0       0      -1      26     -0.00000000     -0.00090463     -0.00083826      0.02055433       3
Fe             -0.00000000      5.20067911     97.80732913      58       0       0      -1      26     -0.00000000     -0.00080239     -0.00126593      0.01411921       3
Fe              1.41500000      6.75187586     96.45924895      58       0       0      -1      26     -0.00000000     -0.00236673     -0.00096833      0.03028263       3
Fe             -0.00000000      7.95465892     98.03003930      58       0       0      -1      26     -0.00000000      0.00070152     -0.00379904      0.00682745       3
Fe              1.41500000      9.44067831     96.73053138      58       0       0      -1      26     -0.00000000      0.00002493     -0.00707560      0.04686520       3
Fe             -0.00000000     10.71152543     98.31119329      58       0       0      -1      26     -0.00000000     -0.00084596     -0.00420740      0.00380450       3
Fe              1.41500000     12.21515574     97.03922307      58       0       0      -1      26     -0.00000000      0.00009147     -0.00142475      0.00550464       3
Fe             -0.00000000     13.53345103     98.58678774      58       0       0      -1      26     -0.00000000     -0.00024717     -0.00185581      0.00246012       3
Fe              1.41500000     15.07500185     97.34012007      59       0       0      -1      26     -0.00000000     -0.00003866     -0.00107033      0.01025969       3
Fe             -0.00000000     16.39607689     98.85653542      58       0       0      -1      26     -0.00000000     -0.00016845     -0.00185348      0.00303076       3
Fe              1.41500000     17.97404598     97.60836975      58       0       0      -1      26     -0.00000000     -0.00004967     -0.00080021      0.00564242       3
Fe             -0.00000000     19.26076130     99.10707787      58       0       0      -1      26     -0.00000000     -0.00018587     -0.00174006      0.00459754       3
Fe              1.41500000     20.82986495     97.80732913      58       0       0      -1      26     -0.00000000     -0.00080239     -0.00126593      0.01411921       3
Fe             -0.00000000     22.06771171     99.34233124      58       0       0      -1      26     -0.00000000      0.00080341     -0.00288816      0.00287527       3
Fe              1.41500000     23.58384476     98.03003930      58       0       0      -1      26     -0.00000000      0.00070152     -0.00379904      0.00682745       3
Fe             -0.00000000     24.83493558     99.59769546      58       0       0      -1      26     -0.00000000      0.00017074     -0.00445389      0.00289477       3
Fe              1.41500000     26.34071127     98.31119329      58       0       0      -1      26     -0.00000000     -0.00084596     -0.00420740      0.00380450       3
Fe             -0.00000000     27.63709198     99.85969149      58       0       0      -1      26     -0.00000000     -0.00065039     -0.00337979      0.00061233       3
Fe              1.41500000     29.16263687     98.58678774      58       0       0      -1      26     -0.00000000     -0.00024717     -0.00185581      0.00246012       3
Fe             -0.00000000     30.47296491    100.11945072      58       0       0      -1      26     -0.00000000     -0.00013438     -0.00243652      0.00127584       3
Fe              1.41500000      0.76689105     98.85653542      58       0       0      -1      26     -0.00000000     -0.00016845     -0.00185348      0.00303076       3
Fe             -0.00000000      2.06347465    100.37919462      58       0       0      -1      26     -0.00000000      0.00000622     -0.00237898      0.00145593       3
Fe              1.41500000      3.63157546     99.10707787      58       0       0      -1      26     -0.00000000     -0.00018587     -0.00174006      0.00459754       3
Fe             -0.00000000      4.89476318    100.63710197      58       0       0      -1      26     -0.00000000      0.00060174     -0.00286970      0.00102166       3
Fe              1.41500000      6.43852587     99.34233124      58       0       0      -1      26     -0.00000000      0.00080341     -0.00288816      0.00287527       3
Fe             -0.00000000      7.68964883    100.89115315      58       0       0      -1      26     -0.00000000      0.00082196     -0.00355016      0.00160826       3
Fe              1.41500000      9.20574974     99.59769546      58       0       0      -1      26     -0.00000000      0.00017074     -0.00445389      0.00289477       3
Fe             -0.00000000     10.48651438    101.14505723      58       0       0      -1      26     -0.00000000     -0.00030768     -0.00378981      0.00036902       3
Fe              1.41500000     12.00790614     99.85969149      58       0       0      -1      26     -0.00000000     -0.00065039     -0.00337979      0.00061233       3
Fe             -0.00000000     13.30630210    101.39680759      58       0       0      -1      26     -0.00000000     -0.00024409     -0.00324131      0.00030689       3
Fe              1.41500000     14.84377907    100.11945072      58       0       0      -1      26     -0.00000000     -0.00013438     -0.00243652      0.00127584       3
Fe             -0.00000000     16.13962932    101.65242912      58       0       0      -1      26     -0.00000000      0.00017813     -0.00287974      0.00072749       3
Fe              1.41500000     17.69266049    100.37919462      58       0       0      -1      26     -0.00000000      0.00000622     -0.00237898      0.00145593       3
Fe             -0.00000000     18.97091358    101.91464491      58       0       0      -1      26     -0.00000000      0.00055989     -0.00297727      0.00019323       3
Fe              1.41500000     20.52394902    100.63710197      58       0       0      -1      26     -0.00000000      0.00060174     -0.00286970      0.00102166       3
Fe             -0.00000000     21.78621816    102.17840459      58       0       0      -1      26     -0.00000000      0.00072771     -0.00329486      0.00059233       3
Fe              1.41500000     23.31883467    100.89115315      58       0       0      -1      26     -0.00000000      0.00082196     -0.00355016      0.00160826       3
Fe             -0.00000000     24.59122444    102.43360557      58       0       0      -1      26     -0.00000000      0.00030000     -0.00359563      0.00044059       3
Fe              1.41500000     26.11570022    101.14505723      58       0       0      -1      26     -0.00000000     -0.00030768     -0.00378981      0.00036902       3
Fe             -0.00000000     27.40436354    102.68229574      58       0       0      -1      26     -0.00000000     -0.00013251     -0.00366034      0.00001695       3
Fe              1.41500000     28.93548794    101.39680759      58       0       0      -1      26     -0.00000000     -0.00024409     -0.00324131      0.00030689       3
Fe             -0.00000000     30.22713424    102.93273431      58       0       0      -1      26     -0.00000000      0.00004370     -0.00342919      0.00024694       3
Fe              1.41500000      0.51044348    101.65242912      58       0       0      -1      26     -0.00000000      0.00017813     -0.00287974      0.00072749       3
Fe             -0.00000000      1.79389994    103.19100370      58       0       0      -1      26     -0.00000000      0.00046105     -0.00312645      0.00020237       3
Fe              1.41500000      3.34172774    101.91464491      58       0       0      -1      26     -0.00000000      0.00055989     -0.00297727      0.00019323       3
Fe             -0.00000000      4.61443028    103.45620113      58       0       0      -1      26     -0.00000000      0.00075651     -0.00312685      0.00003259       3
Fe              1.41500000      6.15703232    102.17840459      58       0       0      -1      26     -0.00000000      0.00072771     -0.00329486      0.00059233       3
Fe             -0.00000000      7.42948339    103.71786677      58       0       0      -1      26     -0.00000000      0.00068832     -0.00321837      0.00028416       3
Fe              1.41500000      8.96203860    102.43360557      58       0       0      -1      26     -0.00000000      0.00030000     -0.00359563      0.00044059       3
Fe             -0.00000000     10.24411494    103.96951534      58       0       0      -1      26     -0.00000000      0.00027499     -0.00346018      0.00005774       3
Fe              1.41500000     11.77517770    102.68229574      58       0       0      -1      26     -0.00000000     -0.00013251     -0.00366034      0.00001695       3
Fe             -0.00000000     13.06212695    104.21794186      58       0       0      -1      26     -0.00000000     -0.00004243     -0.00365219      0.00004295       3
Fe              1.41500000     14.59794840    102.93273431      58       0       0      -1      26     -0.00000000      0.00004370     -0.00342919      0.00024694       3
Fe             -0.00000000     15.88205143    104.47152538      58       0       0      -1      26     -0.00000000      0.00003335     -0.00354147      0.00009122       3
Fe              1.41500000     17.42308578    103.19100370      58       0       0      -1      26     -0.00000000      0.00046105     -0.00312645      0.00020237       3
Fe             -0.00000000     18.70128157    104.73274546      58       0       0      -1      26     -0.00000000      0.00047697     -0.00316928      0.00004243       3
Fe              1.41500000     20.24361612    103.45620113      58       0       0      -1      26     -0.00000000      0.00075651     -0.00312685      0.00003259       3
Fe             -0.00000000     21.51984177    104.99626010      58       0       0      -1      26     -0.00000000      0.00076165     -0.00301340      0.00005699       3
Fe              1.41500000     23.05866923    103.71786677      58       0       0      -1      26     -0.00000000      0.00068832     -0.00321837      0.00028416       3
Fe             -0.00000000     24.33840756    105.25342959      58       0       0      -1      26     -0.00000000      0.00072996     -0.00292759      0.00006717       3
Fe              1.41500000     25.87330078    103.96951534      58       0       0      -1      26     -0.00000000      0.00027499     -0.00346018      0.00005774       3
Fe             -0.00000000     27.15658369    105.50407799      58       0       0      -1      26     -0.00000000      0.00031802     -0.00324982      0.00002630       3
Fe              1.41500000     28.69131279    104.21794186      58       0       0      -1      26     -0.00000000     -0.00004243     -0.00365219      0.00004295       3
Fe             -0.00000000     29.97421234    105.75532562      58       0       0      -1      26     -0.00000000     -0.00006926     -0.00356401      0.00001950       3
Fe              1.41500000      0.25286559    104.47152538      58       0       0      -1      26     -0.00000000      0.00003335     -0.00354147      0.00009122       3
Fe             -0.00000000      1.53306514    106.01219969      58       0       0      -1      26     -0.00000000     -0.00004468     -0.00349722      0.00002344       3
Fe              1.41500000      3.07209573    104.73274546      58       0       0      -1      26     -0.00000000      0.00047697     -0.00316928      0.00004243       3
Fe             -0.00000000      4.35108357    106.27338975      58       0       0      -1      26     -0.00000000      0.00037907     -0.00310624      0.00003273       3
Fe              1.41500000      5.89065593    104.99626010      58       0       0      -1      26     -0.00000000      0.00076165     -0.00301340      0.00005699       3
Fe             -0.00000000      7.17096119    106.53320498      58       0       0      -1      26     -0.00000000      0.00070191     -0.00278822      0.00001323       3
Fe              1.41500000      8.70922172    105.25342959      58       0       0      -1      26     -0.00000000      0.00072996     -0.00292759      0.00006717       3
Fe             -0.00000000      9.99090961    106.78784471      58       0       0      -1      26     -0.00000000      0.00068381     -0.00272371      0.00002511       3
Fe              1.41500000     11.52739785    105.50407799      58       0       0      -1      26     -0.00000000      0.00031802     -0.00324982      0.00002630       3
Fe             -0.00000000     12.80898479    107.03989204      58       0       0      -1      26     -0.00000000      0.00034340     -0.00305771      0.00001264       3
Fe              1.41500000     14.34502650    105.75532562      58       0       0      -1      26     -0.00000000     -0.00006926     -0.00356401      0.00001950       3
Fe             -0.00000000     15.62545942    107.29416272      58       0       0      -1      26     -0.00000000     -0.00001948     -0.00337903      0.00000222       3
Fe              1.41500000     17.16225098    106.01219969      58       0       0      -1      26     -0.00000000     -0.00004468     -0.00349722      0.00002344       3
Fe             -0.00000000     18.44234491    107.55224097      58       0       0      -1      26     -0.00000000     -0.00001319     -0.00331142      0.00001854       3
Fe              1.41500000     19.98026941    106.27338975      58       0       0      -1      26     -0.00000000      0.00037907     -0.00310624      0.00003273       3
Fe             -0.00000000     21.26135734    107.81152882      58       0       0      -1      26     -0.00000000      0.00031818     -0.00299318      0.00001006       3
Fe              1.41500000     22.80014703    106.53320498      58       0       0      -1      26     -0.00000000      0.00070191     -0.00278822      0.00001323       3
Fe             -0.00000000     24.08187159    108.06866210      58       0       0      -1      26     -0.00000000      0.00057993     -0.00263312      0.00000461       3
Fe              1.41500000     25.62009545    106.78784471      58       0       0      -1      26     -0.00000000      0.00068381     -0.00272371      0.00002511       3
Fe             -0.00000000     26.90123297    108.32299391      58       0       0      -1      26     -0.00000000      0.00059276     -0.00266534      0.00001250       3
Fe              1.41500000     28.43817063    107.03989204      58       0       0      -1      26     -0.00000000      0.00034340     -0.00305771      0.00001264       3
Fe             -0.00000000     29.71843224    108.57697777      58       0       0      -1      26     -0.00000000      0.00040753     -0.00290344      0.00000169       3
Fe              1.41500000     -0.00372642    107.29416272      58       0       0      -1      26     -0.00000000     -0.00001948     -0.00337903      0.00000222       3
Fe             -0.00000000      1.27652372    108.83287434      58       0       0      -1      26     -0.00000000      0.00015939     -0.00309427      0.00000508       3
Fe              1.41500000      2.81315907    107.55224097      58       0       0      -1      26     -0.00000000     -0.00001319     -0.00331142      0.00001854       3
Fe             -0.00000000      4.09440463    109.09051943      58       0       0      -1      26     -0.00000000      0.00013811     -0.00306394      0.00000890       3
Fe              1.41500000      5.63217150    107.81152882      58       0       0      -1      26     -0.00000000      0.00031818     -0.00299318      0.00001006       3
Fe             -0.00000000      6.91416366    109.34801830      58       0       0      -1      26     -0.00000000      0.00025085     -0.00282789      0.00000156       3
Fe              1.41500000      8.45268575    108.06866210      58       0       0      -1      26     -0.00000000      0.00057993     -0.00263312      0.00000461       3
Fe             -0.00000000      9.73412171    109.60412230      58       0       0      -1      26     -0.00000000      0.00045722     -0.00262290      0.00000419       3
Fe              1.41500000     11.27204713    108.32299391      58       0       0      -1      26     -0.00000000      0.00059276     -0.00266534      0.00001250       3
Fe             -0.00000000     12.55248887    109.85909074      58       0       0      -1      26     -0.00000000      0.00053054     -0.00266063      0.00000416       3
Fe              1.41500000     14.08924640    108.57697777      58       0       0      -1      26     -0.00000000      0.00040753     -0.00290344      0.00000169       3
Fe             -0.00000000     15.36947229    110.11430176      58       0       0      -1      26     -0.00000000      0.00046886     -0.00271263      0.00000160       3
Fe              1.41500000     16.90570956    108.83287434      58       0       0      -1      26     -0.00000000      0.00015939     -0.00309427      0.00000508       3
Fe             -0.00000000     18.18676085    110.37053281      58       0       0      -1      26     -0.00000000      0.00032911     -0.00276751      0.00000382       3
Fe              1.41500000     19.72359047    109.09051943      58       0       0      -1      26     -0.00000000      0.00013811     -0.00306394      0.00000890       3
Fe             -0.00000000     21.00550190    110.62735562      58       0       0      -1      26     -0.00000000      0.00023915     -0.00272580      0.00000257       3
Fe              1.41500000     22.54334950    109.34801830      58       0       0      -1      26     -0.00000000      0.00025085     -0.00282789      0.00000156       3
Fe             -0.00000000     23.82514191    110.88397252      58       0       0      -1      26     -0.00000000      0.00026133     -0.00266631      0.00000087       3
Fe              1.41500000     25.36330755    109.60412230      58       0       0      -1      26     -0.00000000      0.00045722     -0.00262290      0.00000419       3
Fe             -0.00000000     26.64423819    111.13996920      58       0       0      -1      26     -0.00000000      0.00036995     -0.00260589      0.00000216       3
Fe              1.41500000     28.18167471    109.85909074      58       0       0      -1      26     -0.00000000      0.00053054     -0.00266063      0.00000416       3
Fe             -0.00000000     29.46212142    111.39549758      58       0       0      -1      26     -0.00000000      0.00043413     -0.00253737      0.00000221       3
Fe              1.41500000     30.99865813    110.11430176      58       0       0      -1      26     -0.00000000      0.00046886     -0.00271263      0.00000160       3
Fe             -0.00000000      1.02115660    111.65113311      58       0       0      -1      26     -0.00000000      0.00042575     -0.00244848      0.00000147       3
Fe              1.41500000      2.55757501    110.37053281      58       0       0      -1      26     -0.00000000      0.00032911     -0.00276751      0.00000382       3
Fe             -0.00000000      3.83923017    111.90717469      58       0       0      -1      26     -0.00000000      0.00037352     -0.00241549      0.00000139       3
Fe              1.41500000      5.37631606    110.62735562      58       0       0      -1      26     -0.00000000      0.00023915     -0.00272580      0.00000257       3
Fe             -0.00000000      6.65819921    112.16350587      58       0       0      -1      26     -0.00000000      0.00032434     -0.00242791      0.00000100       3
Fe              1.41500000      8.19595607    110.88397252      58       0       0      -1      26     -0.00000000      0.00026133     -0.00266631      0.00000087       3
Fe             -0.00000000      9.47734675    112.41985211      58       0       0      -1      26     -0.00000000      0.00028614     -0.00241832      0.00000040       3
Fe              1.41500000     11.01505235    111.13996920      58       0       0      -1      26     -0.00000000      0.00036995     -0.00260589      0.00000216       3
Fe             -0.00000000     12.29590458    112.67591933      58       0       0      -1      26     -0.00000000      0.00028264     -0.00236477      0.00000135       3
Fe              1.41500000     13.83293558    111.39549758      58       0       0      -1      26     -0.00000000      0.00043413     -0.00253737      0.00000221       3
Fe             -0.00000000     15.11383102    112.93165433      58       0       0      -1      26     -0.00000000      0.00031623     -0.00223038      0.00000144       3
Fe              1.41500000     16.65034244    111.65113311      58       0       0      -1      26     -0.00000000      0.00042575     -0.00244848      0.00000147       3
Fe             -0.00000000     17.93176736    113.18732347      58       0       0      -1      26     -0.00000000      0.00035446     -0.00215042      0.00000054       3
Fe              1.41500000     19.46841601    111.90717469      58       0       0      -1      26     -0.00000000      0.00037352     -0.00241549      0.00000139       3
Fe             -0.00000000     20.75021359    113.44320592      58       0       0      -1      26     -0.00000000      0.00035785     -0.00212831      0.00000054       3
Fe              1.41500000     22.28738505    112.16350587      58       0       0      -1      26     -0.00000000      0.00032434     -0.00242791      0.00000100       3
Fe             -0.00000000     23.56904249    113.69937734      58       0       0      -1      26     -0.00000000      0.00030388     -0.00210757      0.00000042       3
Fe              1.41500000     25.10653259    112.41985211      58       0       0      -1      26     -0.00000000      0.00028614     -0.00241832      0.00000040       3
Fe             -0.00000000     26.38779261    113.95563037      58       0       0      -1      26     -0.00000000      0.00026858     -0.00203470      0.00000030       3
Fe              1.41500000     27.92509042    112.67591933      58       0       0      -1      26     -0.00000000      0.00028264     -0.00236477      0.00000135       3
Fe             -0.00000000     29.20618146    114.21166655      58       0       0      -1      26     -0.00000000      0.00027226     -0.00194907      0.00000087       3