21000
adsorbate_info energy=-90518.79032659 virial="-659.20600250      67.34176156      -0.02716396      67.34176156    -462.68205384      -0.01074805      -0.02716396      -0.01074805   -1294.61672281" cutoff=5.30000000 nneightol=1.20000000 pbc="T T T" Lattice="16.98000000       0.00000000       0.00000000       0.00000000      84.14194911       0.00000000       0.00000000       0.00000000     166.97199582" Properties=species:S:1:pos:R:3:Z:I:1:map_shift:I:3:n_neighb:I:1:force:R:3:csp:R:1:cna:I:1
Fe              0.01241359      0.10325655    125.11890358      26       0       0      -1      54     -0.00225830     -0.00007547     -0.00395667      4.02869619       0
Fe             -0.37461916      2.17620059    126.40667583      26       0       0      -1      59     -0.00002049     -0.00000469      0.00006005      3.67054200       0
Fe              0.97690776      4.15362795    126.27085496      26       0       0      -1      59     -0.00001119     -0.00007379     -0.00000755      0.02983996       3
Fe             -0.35802949      4.23853056    128.35356200      26       0       0      -1      59     -0.00004173     -0.00005655     -0.00001070      0.01478258       3
Fe              1.01330135      6.22580751    128.27712062      26       0       0      -1      58     -0.00004256     -0.00005721     -0.00001349      0.00491256       3
Fe             -0.34972105      6.31636930    130.32177005      26       0       0      -1      58     -0.00005678     -0.00004509     -0.00001191      0.00305345       3
Fe              1.03862329      8.30559272    130.26532572      26       0       0      -1      58     -0.00006100     -0.00004520     -0.00001063      0.00142312       3
Fe             -0.33563989      8.39986372    132.29105901      26       0       0      -1      58     -0.00007457     -0.00003792     -0.00001057      0.00099216       3
Fe              1.06455964     10.39245484    132.24118790      26       0       0      -1      58     -0.00007526     -0.00003728     -0.00001405      0.00050871       3
Fe             -0.31689997     10.49010680    134.25342468      26       0       0      -1      58     -0.00009039     -0.00003097     -0.00002232      0.00035036       3
Fe              1.09242685     12.48728071    134.20162256      26       0       0      -1      58     -0.00008383     -0.00002346     -0.00001716      0.00025639       3
Fe             -0.29507387     12.58647030    136.20363332      26       0       0      -1      58     -0.00010529     -0.00001323     -0.00003337      0.00017466       3
Fe              1.12155015     14.58812625    136.14412407      26       0       0      -1      58     -0.00009356     -0.00000637     -0.00002183      0.00027088       3
Fe             -0.27194785     14.68679312    138.13898991      26       0       0      -1      58     -0.00011880     -0.00001329     -0.00002889      0.00018799       3
Fe              1.15004371     16.69151676    138.06689434      26       0       0      -1      58     -0.00011556     -0.00000999     -0.00002336      0.00049332       3
Fe             -0.24979432     16.78826119    140.05786948      26       0       0      -1      58     -0.00014523     -0.00002032     -0.00002576      0.00033210       3
Fe              1.17505271     18.79358537    139.96910939      26       0       0      -1      58     -0.00014443     -0.00001451     -0.00001552      0.00073474       3
Fe             -0.23085832     18.88813867    141.96050052      26       0       0      -1      58     -0.00017005     -0.00001812     -0.00001091      0.00040582       3
Fe              1.19395166     20.89118706    141.85596603      26       0       0      -1      58     -0.00016423     -0.00001108      0.00000638      0.00022513       3
Fe             -0.21673532     20.98460412    143.85241386      26       0       0      -1      58     -0.00019388     -0.00000666      0.00000878      0.00011434       3
Fe              1.20618395     22.98468272    143.74291632      26       0       0      -1      58     -0.00019518     -0.00000514      0.00001660      0.00001242       3
Fe             -0.20749821     23.07825386    145.74479314      26       0       0      -1      58     -0.00022239      0.00000643      0.00001715      0.00000700       3
Fe              1.21318806     25.07660015    145.63785987      26       0       0      -1      58     -0.00022763      0.00001167      0.00001692      0.00001954       3
Fe             -0.20207193     25.17067418    147.64293668      26       0       0      -1      58     -0.00023797      0.00001233      0.00001427      0.00000979       3
Fe              1.21663312     27.16845686    147.54071844      26       0       0      -1      58     -0.00023347      0.00001834      0.00002314      0.00002938       3
Fe             -0.19930466     27.26302411    149.54693060      26       0       0      -1      58     -0.00023622      0.00000189      0.00001865      0.00001608       3
Fe              1.21785329     29.26087688    149.44886580      26       0       0      -1      58     -0.00023387      0.00000338      0.00002320      0.00001790       3
Fe             -0.19821322     29.35579722    151.45496256      26       0       0      -1      58     -0.00026409     -0.00001816      0.00001873      0.00000975       3
Fe              1.21780566     31.35399603    151.35939670      26       0       0      -1      58     -0.00027421     -0.00001511      0.00001050      0.00000649       3
Fe             -0.19810004     31.44903191    153.36489294      26       0       0      -1      58     -0.00032161     -0.00004296      0.00000409      0.00000337       3
Fe              1.21712965     33.44754604    153.27029715      26       0       0      -1      58     -0.00032154     -0.00003824      0.00000802      0.00000141       3
Fe             -0.19849119     33.54253045    155.27517164      26       0       0      -1      58     -0.00035339     -0.00005220      0.00000492      0.00000064       3
Fe              1.21625862     35.54126160    155.18044892      26       0       0      -1      58     -0.00033663     -0.00005026      0.00001969      0.00000089       3
Fe             -0.19905328     35.63611394    157.18491024      26       0       0      -1      58     -0.00035208     -0.00006161      0.00001525      0.00000053       3
Fe              1.21547798     37.63491383    157.08944869      26       0       0      -1      58     -0.00034034     -0.00005690      0.00001927      0.00000134       3
Fe             -0.19956326     37.72961629    159.09378189      26       0       0      -1      58     -0.00035135     -0.00007086      0.00001550      0.00000079       3
Fe              1.21493804     39.72836271    158.99752097      26       0       0      -1      58     -0.00035635     -0.00006370      0.00001700      0.00000064       3
Fe             -0.19990347     39.82294275    161.00193331      26       0       0      -1      58     -0.00036393     -0.00009903      0.00001719      0.00000035       3
Fe              1.21467885     41.82160981    160.90523771      26       0       0      -1      58     -0.00037416     -0.00010699     -0.00002039      0.00000006       3
Fe             -0.20003882     41.91608754    162.90976718      26       0       0      -1      58     -0.00038252     -0.00014386     -0.00001744      0.00000006       3
Fe              1.27507296      0.14315083    126.95639974      26       0       0      -1      56      0.00025174     -0.00009386      0.00053069      4.83086800       3
Fe             -0.19129327      0.27645933    128.84095042      26       0       0      -1      57     -0.00001319     -0.00006105     -0.00011438      0.07910809       3
Fe              1.11649252      2.25704392    128.50182851      26       0       0      -1      57     -0.00004145     -0.00006566     -0.00001511      0.08551113       3
Fe             -0.26777751      2.35057769    130.55415745      26       0       0      -1      58     -0.00004362     -0.00004517     -0.00000428      0.01796096       3
Fe              1.10159421      4.33128845    130.41116982      26       0       0      -1      58     -0.00004808     -0.00004516     -0.00001118      0.00698195       3
Fe             -0.28531963      4.42437307    132.45328928      26       0       0      -1      58     -0.00005317     -0.00003346     -0.00001114      0.00340092       3
Fe              1.10136274      6.41083573    132.35852406      26       0       0      -1      58     -0.00006402     -0.00003578     -0.00000927      0.00190092       3
Fe             -0.28773210      6.50621785    134.38791204      26       0       0      -1      58     -0.00007837     -0.00003045     -0.00000231      0.00115276       3
Fe              1.11001591      8.49676673    134.31313025      26       0       0      -1      58     -0.00008835     -0.00003470     -0.00001001      0.00066351       3
Fe             -0.28171467      8.59416234    136.33154169      26       0       0      -1      58     -0.00010686     -0.00002615     -0.00001221      0.00043155       3
Fe              1.12415684     10.58870403    136.26419520      26       0       0      -1      58     -0.00011001     -0.00002125     -0.00003324      0.00023382       3
Fe             -0.27065311     10.68706026    138.27354571      26       0       0      -1      58     -0.00012743     -0.00001783     -0.00004143      0.00015116       3
Fe              1.14137095     12.68534632    138.20588598      26       0       0      -1      58     -0.00012378     -0.00001552     -0.00004104      0.00011321       3
Fe             -0.25704624     12.78341844    140.20837914      26       0       0      -1      58     -0.00014347     -0.00001887     -0.00004177      0.00006787       3
Fe              1.15958436     14.78461357    140.13547019      26       0       0      -1      58     -0.00014577     -0.00002232     -0.00002984      0.00012238       3
Fe             -0.24271473     14.88164102    142.13333886      26       0       0      -1      58     -0.00018154     -0.00001546     -0.00002718      0.00007908       3
Fe              1.17672416     16.88434682    142.05151690      26       0       0      -1      58     -0.00017864     -0.00001925     -0.00002163      0.00021405       3
Fe             -0.22947743     16.98006356    144.04737823      26       0       0      -1      58     -0.00021793     -0.00000063     -0.00001280      0.00013483       3
Fe              1.19106934     18.98268323    143.95492832      26       0       0      -1      58     -0.00020450     -0.00000577     -0.00000344      0.00022387       3
Fe             -0.21854855     19.07720871    145.95160162      26       0       0      -1      58     -0.00023820      0.00000501      0.00000204      0.00012474       3
Fe              1.20171253     21.07840275    145.85075753      26       0       0      -1      58     -0.00022495      0.00000354      0.00000978      0.00006122       3
Fe             -0.21048308     21.17244693    147.85045567      26       0       0      -1      58     -0.00024828     -0.00000068      0.00000554      0.00003394       3
Fe              1.20875770     23.17211954    147.74711405      26       0       0      -1      58     -0.00024065      0.00000582      0.00001190      0.00000423       3
Fe             -0.20507646     23.26620353    149.74975732      26       0       0      -1      58     -0.00025494     -0.00000577      0.00000616      0.00000266       3
Fe              1.21297696     25.26490900    149.64766034      26       0       0      -1      58     -0.00024556     -0.00000211      0.00001080      0.00000498       3
Fe             16.77822061     25.35936900    151.65211705      26      -1       0      -1      58     -0.00026580     -0.00002553      0.00000905      0.00000246       3
Fe              1.21521155     27.35768577    151.55256077      26       0       0      -1      58     -0.00025955     -0.00002277      0.00001314      0.00000863       3
Fe             -0.19997685     27.45239801    153.55776869      26       0       0      -1      58     -0.00029914     -0.00005457      0.00000904      0.00000453       3
Fe              1.21616963     29.45069533    153.46058297      26       0       0      -1      58     -0.00030940     -0.00004976      0.00001013      0.00000522       3
Fe             -0.19916627     29.54553354    155.46586233      26       0       0      -1      58     -0.00034572     -0.00005446      0.00000249      0.00000270       3
Fe              1.21635648     31.54397523    155.37013046      26       0       0      -1      58     -0.00035694     -0.00005318     -0.00000167      0.00000167       3
Fe             -0.19897413     31.63883174    157.37518541      26       0       0      -1      58     -0.00037217     -0.00005963     -0.00000226      0.00000076       3
Fe              1.21613204     33.63741612    157.27999352      26       0       0      -1      58     -0.00036979     -0.00006263      0.00000351      0.00000027       3
Fe             -0.19911857     33.73221451    159.28478969      26       0       0      -1      58     -0.00037346     -0.00008239      0.00000426      0.00000011       3
Fe              1.21575939     35.73088292    159.18946052      26       0       0      -1      58     -0.00036182     -0.00007785      0.00001159      0.00000036       3
Fe             -0.19938913     35.82556463    161.19409085      26       0       0      -1      58     -0.00036755     -0.00009648      0.00001074      0.00000032       3
Fe              1.21541494     37.82424720    161.09824955      26       0       0      -1      58     -0.00036001     -0.00009558      0.00001602      0.00000053       3
Fe             -0.19964405     37.91878358    163.10282635      26       0       0      -1      58     -0.00036712     -0.00013055      0.00002126      0.00000042       3
Fe              1.21519382     39.91743679    163.00643674      26       0       0      -1      58     -0.00037050     -0.00013553      0.00002129      0.00000022       3
Fe             -0.19980159     40.01180932    165.01100740      26       0       0      -1      58     -0.00037698     -0.00014671      0.00002276      0.00000017       3
Fe              1.21512941     42.01044629    164.91429859      26       0       0      -1      58     -0.00038896     -0.00014794     -0.00001192      0.00000008       3
Fe              1.21071056      0.36531218    130.78669323      26       0       0      -1      58     -0.00005141     -0.00004945     -0.00000765      0.01198971       3
Fe             -0.20862392      0.44950870    132.76455521      26       0       0      -1      58     -0.00005548     -0.00002699     -0.00002397      0.00210524       3
Fe              1.16393615      2.43972892    132.58633128      26       0       0      -1      58     -0.00005030     -0.00002996     -0.00000636      0.00456618       3
Fe             -0.24022140      2.52896883    134.60805854      26       0       0      -1      58     -0.00007529     -0.00001687     -0.00000316      0.00141761       3
Fe              1.14900111      4.51731780    134.48445761      26       0       0      -1      58     -0.00007127     -0.00002242     -0.00000628      0.00166502       3
Fe             -0.25187728      4.61062163    136.50809608      26       0       0      -1      58     -0.00010600     -0.00001915     -0.00000003      0.00084269       3
Fe              1.14651706      6.60184496    136.41133710      26       0       0      -1      58     -0.00010288     -0.00002478      0.00000348      0.00068613       3
Fe             -0.25383290      6.69740880    138.43011849      26       0       0      -1      58     -0.00013247     -0.00002231      0.00000476      0.00040743       3
Fe              1.15115715      8.69135283    138.34681674      26       0       0      -1      58     -0.00012897     -0.00002105     -0.00001756      0.00027298       3
Fe             -0.24996623      8.78814488    140.35956086      26       0       0      -1      58     -0.00014860     -0.00001311     -0.00002448      0.00017095       3
Fe              1.15997290     10.78473078    140.28169539      26       0       0      -1      58     -0.00014280     -0.00001447     -0.00004543      0.00009441       3
Fe             -0.24281239     10.88183764    142.28890337      26       0       0      -1      58     -0.00016765     -0.00000288     -0.00004597      0.00005803       3
Fe              1.17084773     12.88076413    142.21102924      26       0       0      -1      58     -0.00017320     -0.00000960     -0.00003812      0.00004035       3
Fe             -0.23413286     12.97754480    144.21387903      26       0       0      -1      58     -0.00021336      0.00000427     -0.00003596      0.00002341       3
Fe              1.18208112     14.97810750    144.13237444      26       0       0      -1      58     -0.00022234      0.00000333     -0.00002610      0.00005019       3
Fe             -0.22532873     15.07411972    146.13237358      26       0       0      -1      58     -0.00025669      0.00000709     -0.00002624      0.00003221       3
Fe              1.19231795     17.07543443    146.04492902      26       0       0      -1      58     -0.00025260      0.00000827     -0.00000531      0.00008245       3
Fe             -0.21741622     17.17067740    148.04383691      26       0       0      -1      58     -0.00027510     -0.00000637     -0.00000368      0.00004928       3
Fe              1.20065701     19.17178526    147.94997048      26       0       0      -1      58     -0.00026296     -0.00000459      0.00000170      0.00007030       3
Fe             -0.21101642     19.26644097    149.94962414      26       0       0      -1      58     -0.00027721     -0.00001753     -0.00000467      0.00004029       3
Fe              1.20681979     21.26670472    149.85110551      26       0       0      -1      58     -0.00026514     -0.00001120     -0.00000211      0.00001874       3
Fe             -0.20627806     21.36116210    151.85246774      26       0       0      -1      58     -0.00028244     -0.00002680     -0.00000826      0.00001036       3
Fe              1.21098857     23.36057320    151.75261145      26       0       0      -1      58     -0.00027478     -0.00002531      0.00000503      0.00000169       3
Fe             -0.20305605     23.45507578    153.75563064      26       0       0      -1      58     -0.00030221     -0.00005285      0.00000792      0.00000108       3
Fe              1.21356988     25.45393380    153.65637763      26       0       0      -1      58     -0.00029792     -0.00005508      0.00000965      0.00000123       3
Fe             -0.20104984     25.54850342    155.66051378      26       0       0      -1      58     -0.00032765     -0.00005931      0.00000994      0.00000065       3
Fe              1.21500364     27.54709357    155.56267567      26       0       0      -1      58     -0.00033338     -0.00005639      0.00000693      0.00000235       3
Fe             -0.19994434     27.64175854    157.56737055      26       0       0      -1      58     -0.00035359     -0.00005719      0.00000579      0.00000121       3
Fe              1.21565134     29.64030946    157.47089737      26       0       0      -1      58     -0.00036293     -0.00005667     -0.00000084      0.00000133       3
Fe             -0.19947197     29.73503150    159.47576142      26       0       0      -1      58     -0.00036736     -0.00008475     -0.00000115      0.00000061       3
Fe              1.21579814     31.73361260    159.38011788      26       0       0      -1      58     -0.00037228     -0.00008403     -0.00000099      0.00000029       3
Fe             -0.19940848     31.82831154    161.38497693      26       0       0      -1      58     -0.00037120     -0.00010632     -0.00000208      0.00000009       3
Fe              1.21566966     33.82692236    161.28958510      26       0       0      -1      58     -0.00037304     -0.00010052      0.00000543      0.00000008       3
Fe             -0.19957108     33.92153111    163.29440334      26       0       0      -1      58     -0.00037280     -0.00012786      0.00000885      0.00000014       3
Fe              1.21543598     35.92014619    163.19879995      26       0       0      -1      58     -0.00037148     -0.00012798      0.00001453      0.00000035       3
Fe             -0.19981660     36.01460626    165.20359452      26       0       0      -1      58     -0.00037219     -0.00015013      0.00001992      0.00000044       3
Fe              1.21521664     38.01319667    165.10749970      26       0       0      -1      58     -0.00037347     -0.00014921      0.00002505      0.00000040       3
Fe              1.20485800      0.53601738    134.75669826      26       0       0      -1      58     -0.00008119     -0.00001297     -0.00001058      0.00047563       3
Fe             -0.21061720      0.62478274    136.75544635      26       0       0      -1      58     -0.00011640     -0.00000819      0.00000576      0.00013930       3
Fe              1.18247685      2.61936471    136.62422219      26       0       0      -1      58     -0.00011369     -0.00001307      0.00000064      0.00052228       3
Fe             -0.22660996      2.71098000    138.63707699      26       0       0      -1      58     -0.00014620     -0.00001914      0.00000302      0.00022627       3
Fe              1.17375630      4.70431472    138.52659798      26       0       0      -1      58     -0.00014069     -0.00002200      0.00000172      0.00043864       3
Fe             -0.23297816      4.79839428    140.54144753      26       0       0      -1      58     -0.00016392     -0.00001376      0.00000043      0.00023578       3
Fe              1.17254211      6.79294530    140.44544146      26       0       0      -1      58     -0.00015763     -0.00001321      0.00000205      0.00023982       3
Fe             -0.23351700      6.88847659    142.45808982      26       0       0      -1      58     -0.00018559      0.00000170     -0.00000172      0.00014197       3
Fe              1.17586864      8.88459409    142.37031697      26       0       0      -1      58     -0.00017419      0.00000050     -0.00002889      0.00010624       3
Fe             -0.23060028      8.98077135    144.37955832      26       0       0      -1      58     -0.00021366      0.00000364     -0.00003229      0.00006501       3
Fe              1.18170234     10.97848843    144.29528876      26       0       0      -1      58     -0.00020602      0.00000448     -0.00004300      0.00003599       3
Fe             -0.22579843     11.07471345    146.30111726      26       0       0      -1      58     -0.00024301      0.00000093     -0.00003675      0.00002087       3
Fe              1.18866165     13.07380611    146.21682945      26       0       0      -1      58     -0.00024880      0.00000316     -0.00003527      0.00001374       3
Fe             -0.22023934     13.16984097    148.21992839      26       0       0      -1      58     -0.00026770     -0.00000710     -0.00003292      0.00000806       3
Fe              1.19557286     15.16989295    148.13313709      26       0       0      -1      58     -0.00027543     -0.00000762     -0.00002742      0.00002067       3
Fe             -0.21480637     15.26542929    150.13451031      26       0       0      -1      58     -0.00028272     -0.00002590     -0.00002830      0.00001276       3
Fe              1.20170571     17.26582699    150.04385894      26       0       0      -1      58     -0.00028438     -0.00002273     -0.00000798      0.00002989       3
Fe             -0.21003689     17.36088688    152.04472752      26       0       0      -1      58     -0.00029175     -0.00003765     -0.00001339      0.00001847       3
Fe              1.20664273     19.36116542    151.95023202      26       0       0      -1      58     -0.00028819     -0.00003164     -0.00001229      0.00002340       3
Fe             -0.20622047     19.45591816    153.95154956      26       0       0      -1      58     -0.00030533     -0.00005126     -0.00001536      0.00001361       3
Fe              1.21029496     21.45571760    153.85438249      26       0       0      -1      58     -0.00030572     -0.00005185     -0.00001028      0.00000596       3
Fe             -0.20341514     21.55029626    155.85671492      26       0       0      -1      58     -0.00033096     -0.00007332     -0.00001085      0.00000353       3
Fe              1.21277458     23.54959562    155.75880485      26       0       0      -1      58     -0.00032976     -0.00006533      0.00000808      0.00000067       3
Fe             -0.20153545     23.64411973    157.76211052      26       0       0      -1      58     -0.00035769     -0.00007610      0.00000282      0.00000041       3
Fe              1.21430199     25.64306669    157.66457623      26       0       0      -1      58     -0.00035122     -0.00006321      0.00000885      0.00000038       3
Fe             -0.20042110     25.73762326    159.66859055      26       0       0      -1      58     -0.00037411     -0.00008778      0.00000819      0.00000025       3
Fe              1.21510627     27.73639633    159.57191796      26       0       0      -1      58     -0.00036669     -0.00008567      0.00000497      0.00000062       3
Fe             -0.19990132     27.83098958    161.57636401      26       0       0      -1      58     -0.00038159     -0.00011289      0.00000381      0.00000034       3
Fe              1.21539259     29.82968836    161.48051187      26       0       0      -1      58     -0.00037326     -0.00011118     -0.00000188      0.00000026       3
Fe             -0.19981365     29.92426614    163.48519363      26       0       0      -1      58     -0.00038304     -0.00012903     -0.00000247      0.00000012       3
Fe              1.21534072     31.92291900    163.38980280      26       0       0      -1      58     -0.00037374     -0.00012926     -0.00000203      0.00000005       3
Fe             -0.20000966     32.01742289    165.39463151      26       0       0      -1      58     -0.00037349     -0.00014060      0.00000364      0.00000012       3
Fe              1.21510384     34.01602519    165.29926950      26       0       0      -1      58     -0.00036914     -0.00014731      0.00001518      0.00000027       3
Fe              1.20448805      0.71526780    138.75745016      26       0       0      -1      58     -0.00014429     -0.00001499      0.00000988      0.00004893       3
Fe             -0.21006420      0.80713225    140.76097780      26       0       0      -1      58     -0.00015785     -0.00001453      0.00000686      0.00001978       3
Fe              1.19302718      2.80359497    140.64773728      26       0       0      -1      58     -0.00016248     -0.00001498      0.00000037      0.00011065       3
Fe             -0.21816598      2.89700174    142.65694414      26       0       0      -1      58     -0.00017786      0.00000426     -0.00000139      0.00005812       3
Fe              1.18861890      4.89285965    142.55368708      26       0       0      -1      58     -0.00018722      0.00000324     -0.00000113      0.00013091       3
Fe             -0.22110333      4.98758457    144.56398947      26       0       0      -1      58     -0.00021956      0.00000300     -0.00000069      0.00007635       3
Fe              1.18858330      6.98396122    144.46878676      26       0       0      -1      58     -0.00022409      0.00000167     -0.00000583      0.00008332       3
Fe             -0.22079109      7.07935371    146.47796070      26       0       0      -1      58     -0.00025568     -0.00000126     -0.00001080      0.00004881       3
Fe              1.19111815      9.07666837    146.38756810      26       0       0      -1      58     -0.00024893     -0.00000007     -0.00003194      0.00004002       3
Fe             -0.21848989      9.17237635    148.39470351      26       0       0      -1      58     -0.00026688     -0.00000136     -0.00002754      0.00002514       3
Fe              1.19511831     11.17069731    148.30649680      26       0       0      -1      58     -0.00026364     -0.00000435     -0.00002797      0.00001233       3
Fe             -0.21521233     11.26645309    150.31151838      26       0       0      -1      58     -0.00027677     -0.00001999     -0.00001712      0.00000736       3
Fe              1.19955564     13.26560847    150.22315315      26       0       0      -1      58     -0.00027816     -0.00002456     -0.00002905      0.00000476       3
Fe             -0.21165381     13.36107778    152.22646262      26       0       0      -1      58     -0.00030140     -0.00004417     -0.00002586      0.00000286       3
Fe              1.20383692     15.36075603    152.13638459      26       0       0      -1      58     -0.00029579     -0.00004244     -0.00002811      0.00000771       3
Fe             -0.20827765     15.45598082    154.13866912      26       0       0      -1      58     -0.00032112     -0.00004994     -0.00002502      0.00000480       3
Fe              1.20755076     17.45589391    154.04622759      26       0       0      -1      58     -0.00030795     -0.00005039     -0.00001348      0.00001141       3
Fe             -0.20539614     17.55084301    156.04821727      26       0       0      -1      58     -0.00032759     -0.00007223     -0.00000554      0.00000695       3
Fe              1.21049136     19.55065819    155.95340966      26       0       0      -1      58     -0.00032629     -0.00007603     -0.00001309      0.00000788       3
Fe             -0.20315437     19.64535542    157.95568737      26       0       0      -1      58     -0.00035244     -0.00009909     -0.00000960      0.00000451       3
Fe              1.21261975     21.64486880    157.85936130      26       0       0      -1      58     -0.00035985     -0.00009130     -0.00001344      0.00000208       3