11376
energy=-48736.93149762 virial="-335.52424919       0.00000000      -0.00000000       0.00000000    -391.80867892      -0.01994557      -0.00000000      -0.01994557     119.21413337" cutoff=5.30000000 nneightol=1.20000000 pbc="T T T" Lattice="24.01334628       0.00000000       0.00000000       0.00000000      88.77363122       0.00000000       0.00000000       0.00000000      60.59068252" Properties=species:S:1:pos:R:3:n_neighb:I:1:map_shift:I:3:Z:I:1:force:R:3:csp:R:1:cna:I:1
Fe             -0.00000000     -0.12138574     45.47466149      53       0       0      -1      26      0.00000000     -0.01193682     -0.07025879      2.03066086       0
Fe             -0.00000000     12.30749681     11.61778495      58       0       0       0      26      0.00000000      0.01892922      0.08750862      0.08234731       3
Fe              2.00111219     11.05903045     12.34255602      57       0       0       0      26      0.00000000     -0.01260824     -0.01547016      0.14410601       3
Fe              0.00000000      4.31405554     46.79715778      57       0       0      -1      26     -0.00000000      0.02320518     -0.00759888      7.36068713       0
Fe              2.00111219      5.73856654     46.53390113      54       0       0      -1      26     -0.00000000      0.06757630     -0.05152679      3.21646096       3
Fe              0.00000000      6.52040510     48.06379446      56       0       0      -1      26     -0.00000000     -0.00809169      0.10397507      4.28757841       3
Fe              2.00111219      7.87917579     47.71339458      54       0       0      -1      26     -0.00000000     -0.01136569      0.01151810      1.00614167       3
Fe             -0.00000000      8.68841150     49.32509119      57       0       0      -1      26      0.00000000     -0.12110878      0.02466421      0.08463330       3
Fe              2.00111219      9.98018848     48.78126212      56       0       0      -1      26     -0.00000000     -0.08064017     -0.01923666      0.16627740       3
Fe             -0.00000000     10.83368235     50.51570751      58       0       0      -1      26     -0.00000000     -0.04149539      0.05318931      0.03012924       3
Fe              2.00111219     12.08425416     49.95220408      58       0       0      -1      26      0.00000000      0.06153363      0.06551858      0.06411238       3
Fe              0.00000000     12.98207127     51.71325315      58       0       0      -1      26      0.00000000      0.00384025      0.03647848      0.00525205       3
Fe              2.00111219     14.24237593     51.10971216      58       0       0      -1      26     -0.00000000      0.03056926      0.04001209      0.01027021       3
Fe             -0.00000000     15.14922502     52.88374017      58       0       0      -1      26     -0.00000000     -0.01586355      0.02915652      0.00301003       3
Fe              2.00111219     16.41232101     52.28238130      58       0       0      -1      26      0.00000000      0.00641799     -0.00705396      0.00644592       3
Fe              0.00000000     17.32028618     54.04813652      58       0       0      -1      26     -0.00000000     -0.01032293     -0.01172746      0.00102768       3
Fe              2.00111219     18.58745600     53.42715998      58       0       0      -1      26      0.00000000      0.00940947     -0.01705754      0.00303627       3
Fe             -0.00000000     19.49308816     55.18811079      58       0       0      -1      26      0.00000000     -0.00544339     -0.02017894      0.00043112       3
Fe              2.00111219     20.76079684     54.56030816      58       0       0      -1      26     -0.00000000      0.00926009     -0.00909441      0.00196582       3
Fe             -0.00000000     21.66309721     56.32228787      58       0       0      -1      26      0.00000000     -0.00423590     -0.00725905      0.00004012       3
Fe              2.00111219     22.93031754     55.67791194      58       0       0      -1      26      0.00000000      0.00570270     -0.02512457      0.00055300       3
Fe              0.00000000     23.82857476     57.45514320      58       0       0      -1      26     -0.00000000     -0.00379816     -0.01405221      0.00005303       3
Fe              2.00111219     25.09335092     56.81461195      58       0       0      -1      26      0.00000000     -0.00461853     -0.01658048      0.00008034       3
Fe              0.00000000     25.99174655     58.59312117      58       0       0      -1      26     -0.00000000     -0.00557914     -0.00540135      0.00006221       3
Fe              2.00111219     27.25498166     57.95616275      58       0       0      -1      26     -0.00000000     -0.00486422     -0.00578845      0.00012435       3
Fe              0.00000000     28.15320051     59.73740597      58       0       0      -1      26     -0.00000000     -0.00173216     -0.00861696      0.00001514       3
Fe              2.00111219     29.41563024     59.10438782      58       0       0      -1      26     -0.00000000     -0.00037929     -0.01379988      0.00003930       3
Fe              2.00111219     31.57766473     60.25238496      58       0       0      -1      26      0.00000000      0.00063385     -0.00985659      0.00001785       3
Fe              2.00111219      0.95808536     46.59705951      58       0       0      -1      26     -0.00000000      0.09466362     -0.17658280     10.99545870       0
Fe              0.00000000      1.86845894     48.31258549      59       0       0      -1      26     -0.00000000      0.54531348      0.18965327      5.54149017       0
Fe              2.00111219      3.14842777     47.78071877      56       0       0      -1      26      0.00000000      0.02808167     -0.05702455      0.45377171       3
Fe              0.00000000      4.01342117     49.47282651      57       0       0      -1      26     -0.00000000      0.08465180     -0.10560352      0.05780708       3
Fe              2.00111219      5.27191621     48.85770438      54       0       0      -1      26      0.00000000      0.10784429      0.00311839      0.10380746       3
Fe             -0.00000000      6.16099516     50.64365361      57       0       0      -1      26      0.00000000      0.01604916     -0.13687129      0.02408214       3
Fe              2.00111219      7.41323027     50.04387141      56       0       0      -1      26      0.00000000     -0.01650391     -0.11260164      0.05349549       3
Fe             -0.00000000      8.31424164     51.81771604      58       0       0      -1      26     -0.00000000     -0.01570515     -0.08645349      0.00515876       3
Fe              2.00111219      9.57421959     51.19390485      58       0       0      -1      26      0.00000000     -0.04553651     -0.07217484      0.00857230       3
Fe             -0.00000000     10.46654756     52.98274749      58       0       0      -1      26      0.00000000      0.01006270     -0.04509066      0.00261601       3
Fe              2.00111219     11.72490473     52.36183416      58       0       0      -1      26     -0.00000000     -0.00030821     -0.00455664      0.00209243       3
Fe             -0.00000000     12.62657971     54.14877067      58       0       0      -1      26      0.00000000      0.00195855     -0.01596140      0.00070291       3
Fe              2.00111219     13.88881805     53.52321702      58       0       0      -1      26     -0.00000000     -0.01212059      0.00188552      0.00047875       3
Fe             -0.00000000     14.79340930     55.30645071      58       0       0      -1      26      0.00000000     -0.01252203     -0.00738681      0.00044434       3
Fe              2.00111219     16.05657341     54.68305141      58       0       0      -1      26     -0.00000000     -0.01753999      0.00707491      0.00059055       3
Fe             -0.00000000     16.96090129     56.46035354      58       0       0      -1      26      0.00000000     -0.00762406     -0.01236904      0.00021833       3
Fe              2.00111219     18.22633288     55.82930865      58       0       0      -1      26     -0.00000000     -0.00787508      0.00042405      0.00038765       3
Fe             -0.00000000     19.12962092     57.60085164      58       0       0      -1      26     -0.00000000     -0.00411708     -0.01240931      0.00003786       3
Fe              2.00111219     20.39596402     56.96419281      58       0       0      -1      26     -0.00000000     -0.00455257      0.00591684      0.00012666       3
Fe              0.00000000     21.29645922     58.73598944      58       0       0      -1      26     -0.00000000     -0.00158987     -0.00614418      0.00000850       3
Fe              2.00111219     22.56269473     58.09553244      58       0       0      -1      26      0.00000000     -0.00022037     -0.01317131      0.00003598       3
Fe             -0.00000000     23.46145744     59.87013247      58       0       0      -1      26      0.00000000     -0.00271277     -0.00571189      0.00000999       3
Fe              2.00111219     24.72695750     59.23102115      58       0       0      -1      26     -0.00000000     -0.00372902     -0.00807674      0.00003097       3
Fe              2.00111219     26.88986211     60.37027882      58       0       0      -1      26     -0.00000000     -0.00335660     -0.00151428      0.00005411       3
Fe              2.00111219      0.59616266     49.05650164      58       0       0      -1      26     -0.00000000     -0.01544062      0.15950119      0.00941086       3
Fe             -0.00000000      1.49820457     50.80439475      57       0       0      -1      26      0.00000000      0.00270485      0.00936025      0.04893928       3
Fe              2.00111219      2.74990640     50.17448048      56       0       0      -1      26     -0.00000000      0.04383292     -0.00204345      0.01353116       3
Fe             -0.00000000      3.64263608     51.95422440      58       0       0      -1      26      0.00000000      0.01339161     -0.08024782      0.00268698       3
Fe              2.00111219      4.90242139     51.31566998      58       0       0      -1      26     -0.00000000      0.01590354     -0.11558399      0.00315827       3
Fe             -0.00000000      5.79244639     53.10758146      58       0       0      -1      26      0.00000000      0.01665660     -0.08187620      0.00197004       3
Fe              2.00111219      7.05338710     52.48004082      58       0       0      -1      26     -0.00000000      0.00431581     -0.11103707      0.00273013       3
Fe             -0.00000000      7.94644508     54.26487039      58       0       0      -1      26      0.00000000      0.02265720     -0.06004208      0.00071980       3
Fe              2.00111219      9.20773239     53.63244785      58       0       0      -1      26     -0.00000000      0.02160601     -0.06337036      0.00084009       3
Fe             -0.00000000     10.10495463     55.42034569      58       0       0      -1      26     -0.00000000      0.02043773     -0.04728984      0.00042238       3
Fe              2.00111219     11.36627832     54.78990948      58       0       0      -1      26      0.00000000      0.01485803     -0.04454235      0.00034256       3
Fe              0.00000000     12.26870179     56.57490170      58       0       0      -1      26     -0.00000000      0.00342541     -0.03700524      0.00017483       3
Fe              2.00111219     13.53147500     55.94399146      58       0       0      -1      26     -0.00000000     -0.00418833     -0.03303816      0.00013188       3
Fe              0.00000000     14.43390149     57.72555288      58       0       0      -1      26     -0.00000000     -0.00217608     -0.02552627      0.00008752       3
Fe              2.00111219     15.69738980     57.09488252      58       0       0      -1      26     -0.00000000     -0.00709174     -0.01694539      0.00009393       3
Fe              0.00000000     16.59917563     58.87254193      58       0       0      -1      26      0.00000000     -0.00155118     -0.01268620      0.00005450       3
Fe              2.00111219     17.86414839     58.23834847      58       0       0      -1      26      0.00000000     -0.00490889     -0.00665887      0.00007568       3
Fe             -0.00000000     18.76477344     60.01272178      58       0       0      -1      26      0.00000000     -0.00081126     -0.00404754      0.00001875       3
Fe              2.00111219     20.03048251     59.37507574      58       0       0      -1      26     -0.00000000     -0.00242208     -0.00047477      0.00001616       3
Fe              2.00111219      0.21575759     51.48710048      58       0       0      -1      26      0.00000000     -0.00169036      0.03506647      0.00080994       3
Fe              0.00000000      1.11142792     53.25134600      58       0       0      -1      26     -0.00000000      0.00988108     -0.02992498      0.00543728       3
Fe              2.00111219      2.37659859     52.61046691      58       0       0      -1      26      0.00000000      0.01192393     -0.04939216      0.00106353       3
Fe             -0.00000000      3.26665155     54.39186550      58       0       0      -1      26     -0.00000000      0.01410874     -0.03416897      0.00042610       3
Fe              2.00111219      4.53028822     53.75442102      58       0       0      -1      26     -0.00000000      0.01947328     -0.05877400      0.00055451       3
Fe             -0.00000000      5.42511148     55.53704629      58       0       0      -1      26      0.00000000      0.00471586     -0.01981718      0.00031866       3
Fe              2.00111219      6.68613569     54.90616990      58       0       0      -1      26     -0.00000000      0.01543996     -0.04062360      0.00031385       3
Fe              0.00000000      7.58387767     56.68945687      58       0       0      -1      26     -0.00000000      0.00960586     -0.02832985      0.00011951       3
Fe              2.00111219      8.84481872     56.05776739      58       0       0      -1      26     -0.00000000      0.01685708     -0.03742546      0.00017889       3
Fe             -0.00000000      9.74545050     57.84093433      58       0       0      -1      26      0.00000000      0.00564908     -0.03166232      0.00010099       3
Fe              2.00111219     11.00711479     57.21053929      58       0       0      -1      26      0.00000000      0.00700127     -0.04065360      0.00014059       3
Fe             -0.00000000     11.90858367     58.99078873      58       0       0      -1      26      0.00000000      0.00207999     -0.02422380      0.00004837       3
Fe              2.00111219     13.17125505     58.35991070      58       0       0      -1      26     -0.00000000      0.00101280     -0.02830818      0.00006141       3
Fe             -0.00000000     14.07186478     60.13840249      58       0       0      -1      26      0.00000000      0.00288752     -0.01110939      0.00001392       3
Fe              2.00111219     15.33532705     59.50683978      58       0       0      -1      26     -0.00000000      0.00070235     -0.01488635      0.00003982       3
Fe              0.00000000      0.73690974     55.67791194      58       0       0      -1      26     -0.00000000      0.00570270     -0.02512457      0.00055300       3
Fe              2.00111219      2.00207656     55.03580006      58       0       0      -1      26      0.00000000      0.00605248     -0.02042210      0.00024634       3
Fe              0.00000000      2.89994311     56.81461195      58       0       0      -1      26      0.00000000     -0.00461853     -0.01658048      0.00008034       3
Fe              2.00111219      4.16333231     56.17639747      58       0       0      -1      26      0.00000000     -0.00246948     -0.01471097      0.00009039       3
Fe             -0.00000000      5.06157385     57.95616275      58       0       0      -1      26      0.00000000     -0.00486422     -0.00578845      0.00012435       3
Fe              2.00111219      6.32323630     57.32402020      58       0       0      -1      26      0.00000000      0.00150057     -0.01630002      0.00003849       3
Fe              0.00000000      7.22222244     59.10438782      58       0       0      -1      26     -0.00000000     -0.00037929     -0.01379988      0.00003930       3
Fe              2.00111219      8.48417825     58.47348075      58       0       0      -1      26      0.00000000      0.00246748     -0.02128577      0.00004228       3
Fe             -0.00000000      9.38425692     60.25238496      58       0       0      -1      26     -0.00000000      0.00063385     -0.00985659      0.00001785       3
Fe              2.00111219     10.64643315     59.62290251      58       0       0      -1      26     -0.00000000      0.00197313     -0.01818571      0.00003121       3
Fe             -0.00000000      0.36928692     58.09553244      58       0       0      -1      26     -0.00000000     -0.00022037     -0.01317131      0.00003598       3
Fe              2.00111219      1.63516695     57.45514320      58       0       0      -1      26     -0.00000000     -0.00379816     -0.01405221      0.00005303       3
Fe             -0.00000000      2.53354970     59.23102115      58       0       0      -1      26     -0.00000000     -0.00372902     -0.00807674      0.00003097       3
Fe              2.00111219      3.79833874     58.59312117      58       0       0      -1      26     -0.00000000     -0.00557914     -0.00540135      0.00006221       3
Fe             -0.00000000      4.69645430     60.37027882      58       0       0      -1      26     -0.00000000     -0.00335660     -0.00151428      0.00005411       3
Fe              2.00111219      5.95979271     59.73740597      58       0       0      -1      26     -0.00000000     -0.00173216     -0.00861696      0.00001514       3
Fe              2.00111219      1.26804964     59.87013247      58       0       0      -1      26      0.00000000     -0.00271277     -0.00571189      0.00000999       3
Fe             -0.00000000     10.13432221     10.46998333      58       0       0       0      26     -0.00000000      0.06398675      0.05633709      0.01129636       3
Fe              2.00111219      8.88171869     11.14284672      57       0       0       0      26      0.00000000      0.02233271      0.00158657      0.02661267       3
Fe             -0.00000000      9.01920834     46.70807659      58       0       0      -1      26     -0.00000000     -0.11750650      0.41701897      6.72949319       2
Fe              2.00111219     10.44830162     46.50081771      54       0       0      -1      26     -0.00000000     -0.20472489     -0.04826637      3.00843089       0
Fe             -0.00000000     11.19944211     47.98864984      56       0       0      -1      26      0.00000000      0.01901152      0.24185610      4.10595346       3
Fe              2.00111219     12.55883311     47.68033268      54       0       0      -1      26     -0.00000000     -0.02728025     -0.09811013      0.87010171       3
Fe              0.00000000     13.34130986     49.26897080      57       0       0      -1      26      0.00000000      0.10953922      0.06326154      0.06660695       3
Fe              2.00111219     14.65662347     48.74337998      56       0       0      -1      26      0.00000000      0.08105159      0.00342850      0.12285869       3
Fe              0.00000000     15.51101415     50.46227832      57       0       0      -1      26     -0.00000000      0.05649631     -0.04698443      0.02061587       3
Fe              2.00111219     16.79660524     49.90933945      58       0       0      -1      26      0.00000000      0.02011191     -0.06225297      0.05582703       3
Fe              0.00000000     17.68356496     51.63669032      58       0       0      -1      26     -0.00000000      0.01412035     -0.04836546      0.00716540       3
Fe              2.00111219     18.96187809     51.03708984      58       0       0      -1      26      0.00000000      0.03110395     -0.08383853      0.02040911       3
Fe              0.00000000     19.85900137     52.77056928      58       0       0      -1      26      0.00000000      0.00194898     -0.00597429      0.00762820       3
Fe              2.00111219     21.13339789     52.17439296      58       0       0      -1      26     -0.00000000      0.00934299      0.02048367      0.02388700       3
Fe              0.00000000     22.03141688     53.90691842      58       0       0      -1      26     -0.00000000      0.00170180     -0.00947341      0.00025934       3
Fe              2.00111219     23.30483573     53.25134600      58       0       0      -1      26      0.00000000      0.00988108     -0.02992498      0.00543728       3
Fe              0.00000000     24.19548437     55.03580006      58       0       0      -1      26     -0.00000000      0.00605248     -0.02042210      0.00024634       3
Fe              2.00111219     25.46005936     54.39186550      58       0       0      -1      26     -0.00000000      0.01410874     -0.03416897      0.00042610       3
Fe              0.00000000     26.35674011     56.17639747      58       0       0      -1      26     -0.00000000     -0.00246948     -0.01471097      0.00009039       3
Fe              2.00111219     27.61851928     55.53704629      58       0       0      -1      26      0.00000000      0.00471586     -0.01981718      0.00031866       3
Fe              0.00000000     28.51664410     57.32402020      58       0       0      -1      26     -0.00000000      0.00150057     -0.01630002      0.00003849       3
Fe              2.00111219     29.77728548     56.68945687      58       0       0      -1      26      0.00000000      0.00960586     -0.02832985      0.00011951       3
Fe             -0.00000000     30.67758606     58.47348075      58       0       0      -1      26      0.00000000      0.00246748     -0.02128577      0.00004228       3
Fe              2.00111219     31.93885831     57.84093433      58       0       0      -1      26      0.00000000      0.00564908     -0.03166232      0.00010099       3
Fe              0.00000000     32.83984096     59.62290251      58       0       0      -1      26     -0.00000000      0.00197313     -0.01818571      0.00003121       3
Fe              2.00111219     34.10199148     58.99078873      58       0       0      -1      26     -0.00000000      0.00207999     -0.02422380      0.00004837       3
Fe              2.00111219     36.26527259     60.13840249      58       0       0      -1      26      0.00000000      0.00288752     -0.01110939      0.00001392       3
Fe              0.00000000      7.96463013      9.30963930      58       0       0       0      26     -0.00000000      0.01626350      0.02515462      0.00342017       3
Fe              2.00111219      6.70922713      9.95986117      58       0       0       0      26     -0.00000000      0.00029876     -0.00217743      0.00510074       3
Fe             -0.00000000     13.69574858     46.78288609      58       0       0      -1      26      0.00000000      0.11826528     -0.28102945      7.12131244       2
Fe              2.00111219     15.08783403     46.45251210      55       0       0      -1      26      0.00000000      0.11512780      0.60133139      2.40486988       0
Fe             -0.00000000     15.89298758     48.00326759      57       0       0      -1      26      0.00000000      0.06408902     -0.18370012      4.28438663       3
Fe              2.00111219     17.23287851     47.62763121      55       0       0      -1      26     -0.00000000     -0.06943762      0.26105060      0.69059436       3
Fe             -0.00000000     18.07758114     49.21038660      58       0       0      -1      26     -0.00000000     -0.06518728     -0.06113369      0.06195593       3
Fe              2.00111219     19.38122319     48.65923928      58       0       0      -1      26     -0.00000000     -0.18331146      0.42567971      0.17823426       3
Fe             -0.00000000     20.23843424     50.34234405      58       0       0      -1      26      0.00000000     -0.02441688      0.07460850      0.08229533       3
Fe              2.00111219     21.50857717     49.84872844      57       0       0      -1      26     -0.00000000      0.07814370     -0.64022282      0.26073304       3
Fe              0.00000000     22.40916540     51.48710048      58       0       0      -1      26     -0.00000000     -0.00169036      0.03506647      0.00080994       3
Fe              2.00111219     23.69161237     50.80439475      57       0       0      -1      26     -0.00000000      0.00270485      0.00936025      0.04893928       3
Fe             -0.00000000     24.57000639     52.61046691      58       0       0      -1      26     -0.00000000      0.01192393     -0.04939216      0.00106353       3
Fe              2.00111219     25.83604389     51.95422440      58       0       0      -1      26      0.00000000      0.01339161     -0.08024782      0.00268698       3
Fe             -0.00000000     26.72369603     53.75442102      58       0       0      -1      26      0.00000000      0.01947328     -0.05877400      0.00055451       3
Fe              2.00111219     27.98585420     53.10758146      58       0       0      -1      26     -0.00000000      0.01665660     -0.08187620      0.00197004       3
Fe             -0.00000000     28.87954349     54.90616990      58       0       0      -1      26     -0.00000000      0.01543996     -0.04062360      0.00031385       3
Fe              2.00111219     30.13985288     54.26487039      58       0       0      -1      26     -0.00000000      0.02265720     -0.06004208      0.00071980       3
Fe              0.00000000     31.03822652     56.05776739      58       0       0      -1      26      0.00000000      0.01685708     -0.03742546      0.00017889       3
Fe              2.00111219     32.29836244     55.42034569      58       0       0      -1      26     -0.00000000      0.02043773     -0.04728984      0.00042238       3
Fe             -0.00000000     33.20052259     57.21053929      58       0       0      -1      26     -0.00000000      0.00700127     -0.04065360      0.00014059       3
Fe              2.00111219     34.46210960     56.57490170      58       0       0      -1      26     -0.00000000      0.00342540     -0.03700524      0.00017483       3
Fe             -0.00000000     35.36466286     58.35991070      58       0       0      -1      26      0.00000000      0.00101280     -0.02830818      0.00006141       3
Fe              2.00111219     36.62730930     57.72555288      58       0       0      -1      26      0.00000000     -0.00217608     -0.02552627      0.00008752       3
Fe             -0.00000000     37.52873485     59.50683978      58       0       0      -1      26      0.00000000      0.00070235     -0.01488635      0.00003982       3
Fe              2.00111219     38.79258344     58.87254193      58       0       0      -1      26     -0.00000000     -0.00155118     -0.01268620      0.00005450       3
Fe              2.00111219     40.95818124     60.01272178      58       0       0      -1      26      0.00000000     -0.00081126     -0.00404754      0.00001875       3
Fe             -0.00000000      5.78937794      8.15553106      58       0       0       0      26     -0.00000000      0.01340177      0.02347489      0.00119111       3
Fe              2.00111219      4.52761893      8.79819406      58       0       0       0      26      0.00000000      0.02122449      0.04886295      0.00244617       3
Fe              0.00000000     18.38408412     46.72608251      61       0       0      -1      26     -0.00000000     -0.03544669     -0.02423131      6.14375385       2
Fe              2.00111219     19.75974306     46.48333096      54       0       0      -1      26      0.00000000      0.20253334     -0.17038962      5.73594170       0
Fe              0.00000000     20.62106621     47.88195128      60       0       0      -1      26     -0.00000000     -0.06811231      0.11323318      3.47516869       3
Fe              2.00111219     21.94831075     47.66525924      51       0       0      -1      26      0.00000000     -0.63145095      0.56115163      1.87226048       0
Fe              0.00000000     22.78957047     49.05650164      58       0       0      -1      26     -0.00000000     -0.01544062      0.15950119      0.00941086       3
Fe              2.00111219     24.06186675     48.31258549      59       0       0      -1      26     -0.00000000      0.54531348      0.18965327      5.54149016       0
Fe             -0.00000000     24.94331421     50.17448048      56       0       0      -1      26      0.00000000      0.04383292     -0.00204345      0.01353115       3
Fe              2.00111219     26.20682897     49.47282651      57       0       0      -1      26     -0.00000000      0.08465180     -0.10560352      0.05780708       3
Fe             -0.00000000     27.09582919     51.31566998      58       0       0      -1      26     -0.00000000      0.01590354     -0.11558399      0.00315827       3
Fe              2.00111219     28.35440296     50.64365361      57       0       0      -1      26      0.00000000      0.01604916     -0.13687129      0.02408214       3
Fe             -0.00000000     29.24679491     52.48004082      58       0       0      -1      26     -0.00000000      0.00431581     -0.11103707      0.00273013       3
Fe              2.00111219     30.50764945     51.81771604      58       0       0      -1      26     -0.00000000     -0.01570515     -0.08645349      0.00515876       3
Fe             -0.00000000     31.40114020     53.63244785      58       0       0      -1      26      0.00000000      0.02160601     -0.06337036      0.00084009       3