19728
energy=-84525.69923274 virial="-678.88429090       0.00000000       0.00000000       0.00000000    -751.42758065      -0.28501958       0.00000000      -0.28501958    -368.36966966" cutoff=5.30000000 nneightol=1.20000000 pbc="T T T" Lattice="24.01334628       0.00000000       0.00000000       0.00000000     116.27133438       0.00000000       0.00000000       0.00000000      80.73675619" Properties=species:S:1:pos:R:3:n_neighb:I:1:map_shift:I:3:Z:I:1:force:R:3:csp:R:1:cna:I:1
Fe             -0.00000000     -0.05522942     60.62967041      50       0       0      -1      26      0.00000000     -0.09659208     -0.60510698      1.78931766       0
Fe              2.00111219      0.13601109      8.88586244      58       0       0       0      26      0.00000000     -0.00158430      0.05606336      0.00018424       3
Fe              0.00000000     20.96579299     20.15628041      53       0       0       0      26      0.00000000     -0.07849598      0.02221438      7.97166110       0
Fe              0.00000000      4.39293696     62.18527437      54       0       0      -1      26      0.00000000      0.04843464     -0.33097039     10.37357048       0
Fe              2.00111219      5.75477033     61.67744350      54       0       0      -1      26      0.00000000      0.02128653     -0.04076403      6.58443274       0
Fe              0.00000000      6.60714589     63.34238684      56       0       0      -1      26      0.00000000     -0.00919300     -0.21535811      4.89777968       0
Fe              2.00111219      7.90644578     62.88121848      54       0       0      -1      26      0.00000000     -0.04163697      0.00177781      0.68479161       3
Fe             -0.00000000      8.82288141     64.47742047      57       0       0      -1      26      0.00000000      0.00898958     -0.05766918      0.04304460       3
Fe              2.00111219     10.08742495     63.83848825      53       0       0      -1      26      0.00000000      0.00138631      0.08509249      0.09991884       3
Fe             -0.00000000     11.03122783     65.56884878      58       0       0      -1      26      0.00000000      0.01042970     -0.08658065      0.00211113       3
Fe              2.00111219     12.28079602     64.85526737      56       0       0      -1      26      0.00000000      0.00651249     -0.05290943      0.01181116       3
Fe             -0.00000000     13.23003082     66.65217456      58       0       0      -1      26      0.00000000      0.01247002     -0.07659109      0.00103555       3
Fe              2.00111219     14.47131621     65.96025258      57       0       0      -1      26     -0.00000000      0.01041677     -0.09179404      0.00486083       3
Fe             -0.00000000     15.43098773     67.75305037      58       0       0      -1      26      0.00000000      0.01436773     -0.09936978      0.00245414       3
Fe              2.00111219     16.67552364     67.05244845      58       0       0      -1      26     -0.00000000      0.00998840     -0.10367301      0.00244358       3
Fe             -0.00000000     17.63827982     68.82403974      58       0       0      -1      26      0.00000000      0.00635375     -0.10314935      0.00067513       3
Fe              2.00111219     18.87984595     68.12972761      58       0       0      -1      26      0.00000000      0.00590831     -0.09524993      0.00091200       3
Fe             -0.00000000     19.84256516     69.89140343      58       0       0      -1      26      0.00000000      0.00075494     -0.08991854      0.00064609       3
Fe              2.00111219     21.08161477     69.20624674      58       0       0      -1      26     -0.00000000      0.00081179     -0.09534743      0.00077733       3
Fe              0.00000000     22.04488564     70.96329219      58       0       0      -1      26     -0.00000000     -0.00103034     -0.07662958      0.00040059       3
Fe              2.00111219     23.28406438     70.28492886      58       0       0      -1      26     -0.00000000     -0.00307719     -0.07604438      0.00037468       3
Fe              0.00000000     24.24806928     72.03230133      58       0       0      -1      26     -0.00000000      0.00094782     -0.06003481      0.00022813       3
Fe              2.00111219     25.48805670     71.35574030      58       0       0      -1      26      0.00000000      0.00084322     -0.06375357      0.00025614       3
Fe             -0.00000000     26.45188073     73.09695767      58       0       0      -1      26      0.00000000      0.00316540     -0.05350923      0.00016828       3
Fe              2.00111219     27.69226932     72.42109256      58       0       0      -1      26      0.00000000      0.00300252     -0.05684906      0.00018435       3
Fe             -0.00000000     28.65595123     74.15824206      58       0       0      -1      26      0.00000000      0.00344182     -0.04890620      0.00013482       3
Fe              2.00111219     29.89638396     73.48120607      58       0       0      -1      26     -0.00000000      0.00326357     -0.05251300      0.00017186       3
Fe             -0.00000000     30.85974677     75.21714268      58       0       0      -1      26      0.00000000      0.00262253     -0.04371901      0.00010751       3
Fe              2.00111219     32.09963238     74.54253738      58       0       0      -1      26     -0.00000000      0.00234071     -0.04753027      0.00013557       3
Fe             -0.00000000     33.06332875     76.27593395      58       0       0      -1      26     -0.00000000      0.00156346     -0.03559429      0.00006966       3
Fe              2.00111219     34.30309251     75.60330626      58       0       0      -1      26     -0.00000000      0.00162129     -0.04036088      0.00009391       3
Fe             -0.00000000     35.26727367     77.33343398      58       0       0      -1      26     -0.00000000      0.00089244     -0.02690246      0.00003963       3
Fe              2.00111219     36.50722011     76.66151103      58       0       0      -1      26     -0.00000000      0.00101461     -0.03215461      0.00005597       3
Fe             -0.00000000     37.47153503     78.38867859      58       0       0      -1      26      0.00000000      0.00073060     -0.01877039      0.00001898       3
Fe              2.00111219     38.71153880     77.71711657      58       0       0      -1      26      0.00000000      0.00089565     -0.02337232      0.00002888       3
Fe             -0.00000000     39.67570937     79.44279359      58       0       0      -1      26      0.00000000      0.00061899     -0.01162625      0.00000749       3
Fe              2.00111219     40.91565461     78.77178201      58       0       0      -1      26     -0.00000000      0.00077665     -0.01575292      0.00001378       3
Fe             -0.00000000     41.87980227     80.49656017      58       0       0      -1      26      0.00000000      0.00025367     -0.00462741      0.00000123       3
Fe              2.00111219     43.11971556     79.82600001      58       0       0      -1      26     -0.00000000      0.00050837     -0.00873855      0.00000421       3
Fe              2.00111219      1.03811858     61.74114833      58       0       0      -1      26     -0.00000000      0.11428753     -0.11346898     15.97557209       0
Fe             -0.00000000      1.96229567     63.66298467      54       0       0      -1      26     -0.00000000      0.05471110     -0.15899388      5.49282920       0
Fe              2.00111219      3.20827588     63.01023598      55       0       0      -1      26     -0.00000000      0.04530211     -0.03905787      0.10758529       0
Fe             -0.00000000      4.14513483     64.76076441      56       0       0      -1      26     -0.00000000      0.01113970     -0.10552447      0.01402424       3
Fe              2.00111219      5.38045784     64.09221815      54       0       0      -1      26     -0.00000000      0.01555039     -0.07979766      0.02753570       3
Fe             -0.00000000      6.33578929     65.86225972      57       0       0      -1      26     -0.00000000      0.01368564     -0.09028095      0.01131135       3
Fe              2.00111219      7.57136710     65.22765383      56       0       0      -1      26     -0.00000000      0.00952078     -0.04999895      0.04592133       3
Fe             -0.00000000      8.54060227     66.95690975      58       0       0      -1      26     -0.00000000      0.01613991     -0.06808108      0.00196209       3
Fe              2.00111219      9.78642699     66.27704076      58       0       0      -1      26     -0.00000000      0.01862952     -0.08901967      0.00243298       3
Fe             -0.00000000     10.74710629     68.03528734      58       0       0      -1      26      0.00000000      0.01430466     -0.08799152      0.00066982       3
Fe              2.00111219     11.99016779     67.33967503      58       0       0      -1      26     -0.00000000      0.01390369     -0.07462008      0.00181560       3
Fe              0.00000000     12.95093171     69.11092338      58       0       0      -1      26     -0.00000000      0.00648920     -0.08274253      0.00055025       3
Fe              2.00111219     14.19019339     68.42657573      58       0       0      -1      26      0.00000000      0.01232879     -0.09045027      0.00096079       3
Fe              0.00000000     15.15488135     70.19186259      58       0       0      -1      26     -0.00000000      0.00345075     -0.08496555      0.00056060       3
Fe              2.00111219     16.39571005     69.50664671      58       0       0      -1      26      0.00000000      0.00524283     -0.09250493      0.00068763       3
Fe              0.00000000     17.36085042     71.25938634      58       0       0      -1      26     -0.00000000      0.00128246     -0.08023608      0.00035960       3
Fe              2.00111219     18.60161267     70.57556039      58       0       0      -1      26      0.00000000      0.00020124     -0.08118867      0.00044122       3
Fe             -0.00000000     19.56522408     72.32232267      58       0       0      -1      26     -0.00000000      0.00116992     -0.06726160      0.00027339       3
Fe              2.00111219     20.80517522     71.64307311      58       0       0      -1      26     -0.00000000      0.00028445     -0.07222204      0.00033544       3
Fe             -0.00000000     21.76841608     73.38569350      58       0       0      -1      26      0.00000000      0.00150430     -0.05429197      0.00017296       3
Fe              2.00111219     23.00827349     72.70966586      58       0       0      -1      26     -0.00000000      0.00074745     -0.05546537      0.00017701       3
Fe             -0.00000000     23.97178942     74.44739097      58       0       0      -1      26     -0.00000000      0.00212430     -0.04350801      0.00010845       3
Fe              2.00111219     25.21179395     73.77315963      58       0       0      -1      26      0.00000000      0.00253747     -0.04798217      0.00012757       3
Fe             -0.00000000     26.17553067     75.50698994      58       0       0      -1      26      0.00000000      0.00254760     -0.03809924      0.00008009       3
Fe              2.00111219     27.41568901     74.83359163      58       0       0      -1      26      0.00000000      0.00294546     -0.04379975      0.00010169       3
Fe             -0.00000000     28.37957646     76.56439218      58       0       0      -1      26     -0.00000000      0.00223353     -0.03263817      0.00005673       3
Fe              2.00111219     29.61973504     75.89102637      58       0       0      -1      26      0.00000000      0.00228423     -0.03809324      0.00008079       3
Fe             -0.00000000     30.58361510     77.62024181      58       0       0      -1      26     -0.00000000      0.00141274     -0.02589393      0.00003654       3
Fe              2.00111219     31.82351629     76.94813145      58       0       0      -1      26      0.00000000      0.00135400     -0.03081735      0.00005215       3
Fe             -0.00000000     32.78757173     78.67565187      58       0       0      -1      26      0.00000000      0.00069373     -0.01773151      0.00001751       3
Fe              2.00111219     34.02741064     78.00453935      58       0       0      -1      26      0.00000000      0.00071219     -0.02203713      0.00002687       3
Fe             -0.00000000     34.99164976     79.73035370      58       0       0      -1      26     -0.00000000      0.00026707     -0.00970078      0.00000543       3
Fe              2.00111219     36.23155617     79.05963111      58       0       0      -1      26     -0.00000000      0.00045287     -0.01388524      0.00001117       3
Fe              2.00111219     38.43575335     80.11355786      58       0       0      -1      26      0.00000000      0.00034703     -0.00694885      0.00000264       3
Fe              2.00111219      0.69395387     64.36980107      58       0       0      -1      26     -0.00000000      0.02825907     -0.13521551      0.03949201       3
Fe             -0.00000000      1.66303717     66.15595918      57       0       0      -1      26     -0.00000000     -0.01349114     -0.10277032      0.00627383       3
Fe              2.00111219      2.89831030     65.46880246      56       0       0      -1      26     -0.00000000     -0.00441465     -0.06904031      0.00241836       3
Fe             -0.00000000      3.86021137     67.24040253      58       0       0      -1      26     -0.00000000      0.00554524     -0.07573968      0.00106098       3
Fe              2.00111219      5.09645701     66.55998213      58       0       0      -1      26      0.00000000      0.01328422     -0.07628764      0.00100683       3
Fe             -0.00000000      6.05975872     68.32693660      58       0       0      -1      26      0.00000000      0.00895054     -0.07244125      0.00106128       3
Fe              2.00111219      7.29808899     67.65695663      58       0       0      -1      26      0.00000000      0.01289384     -0.06622362      0.00274218       3
Fe              0.00000000      8.26471068     69.40780863      58       0       0      -1      26     -0.00000000      0.00759707     -0.07188191      0.00047793       3
Fe              2.00111219      9.50607112     68.72543135      58       0       0      -1      26      0.00000000      0.01091879     -0.07671380      0.00031878       3
Fe             -0.00000000     10.47108455     70.47888945      58       0       0      -1      26     -0.00000000      0.00184826     -0.07654776      0.00036362       3
Fe              2.00111219     11.71165570     69.79384901      58       0       0      -1      26     -0.00000000      0.00226978     -0.07785042      0.00056219       3
Fe             -0.00000000     12.67573789     71.54724874      58       0       0      -1      26      0.00000000      0.00003632     -0.06992898      0.00030571       3
Fe              2.00111219     13.91522425     70.86825779      58       0       0      -1      26     -0.00000000      0.00074563     -0.07747665      0.00040223       3
Fe              0.00000000     14.87971187     72.61593307      58       0       0      -1      26     -0.00000000      0.00078681     -0.06273029      0.00023109       3
Fe              2.00111219     16.12001370     71.93790227      58       0       0      -1      26      0.00000000      0.00100166     -0.07156140      0.00031447       3
Fe             -0.00000000     17.08425082     73.67803201      58       0       0      -1      26      0.00000000      0.00195417     -0.05536035      0.00016537       3
Fe              2.00111219     18.32472790     73.00061646      58       0       0      -1      26     -0.00000000      0.00159333     -0.06075376      0.00021450       3
Fe             -0.00000000     19.28826529     74.73683347      58       0       0      -1      26      0.00000000      0.00236593     -0.04561863      0.00011488       3
Fe              2.00111219     20.52838595     74.06163557      58       0       0      -1      26      0.00000000      0.00217497     -0.05080113      0.00014724       3
Fe             -0.00000000     21.49188575     75.79505442      58       0       0      -1      26      0.00000000      0.00200154     -0.03652535      0.00007385       3
Fe              2.00111219     22.73185277     75.12162595      58       0       0      -1      26      0.00000000      0.00204750     -0.04019625      0.00008921       3
Fe             -0.00000000     23.69561872     76.85228820      58       0       0      -1      26      0.00000000      0.00167693     -0.02888420      0.00004453       3
Fe              2.00111219     24.93555579     76.18007780      58       0       0      -1      26     -0.00000000      0.00197877     -0.03297951      0.00005780       3
Fe             -0.00000000     25.89956941     77.90837569      58       0       0      -1      26      0.00000000      0.00141147     -0.02196576      0.00002601       3
Fe              2.00111219     27.13953939     77.23687869      58       0       0      -1      26     -0.00000000      0.00184108     -0.02753511      0.00004000       3
Fe             -0.00000000     28.10368636     78.96329570      58       0       0      -1      26      0.00000000      0.00098522     -0.01568345      0.00001387       3
Fe              2.00111219     29.34367889     78.29192037      58       0       0      -1      26     -0.00000000      0.00120358     -0.02085245      0.00002347       3
Fe             -0.00000000     30.30780922     80.01735298      58       0       0      -1      26      0.00000000      0.00049899     -0.00897077      0.00000459       3
Fe              2.00111219     31.54770735     79.34654727      58       0       0      -1      26     -0.00000000      0.00060859     -0.01353816      0.00001067       3
Fe              2.00111219     33.75177323     80.40076534      58       0       0      -1      26     -0.00000000      0.00011428     -0.00565591      0.00000192       3
Fe              2.00111219      0.41964306     66.85871242      58       0       0      -1      26     -0.00000000     -0.01223043     -0.10019590      0.00202554       3
Fe             -0.00000000      1.38448279     68.61894527      58       0       0      -1      26     -0.00000000     -0.00280170     -0.07063838      0.00102619       3
Fe              2.00111219      2.62248826     67.93109842      58       0       0      -1      26      0.00000000     -0.00294756     -0.06412119      0.00040064       3
Fe             -0.00000000      3.58456821     69.69266707      58       0       0      -1      26      0.00000000      0.00471825     -0.06433828      0.00041054       3
Fe              2.00111219      4.82239648     69.01210908      58       0       0      -1      26      0.00000000      0.00503419     -0.06387402      0.00032313       3
Fe             -0.00000000      5.78618838     70.76858170      58       0       0      -1      26      0.00000000      0.00450637     -0.06622404      0.00036389       3
Fe              2.00111219      7.02515276     70.09307618      58       0       0      -1      26      0.00000000      0.00475255     -0.06933472      0.00049207       3
Fe             -0.00000000      7.99055443     71.83989730      58       0       0      -1      26      0.00000000      0.00242524     -0.06675193      0.00029527       3
Fe              2.00111219      9.23104810     71.16102619      58       0       0      -1      26     -0.00000000      0.00107101     -0.07131360      0.00026915       3
Fe              0.00000000     10.19572546     72.90417833      58       0       0      -1      26     -0.00000000      0.00029589     -0.06072814      0.00020836       3
Fe              2.00111219     11.43606043     72.22563054      58       0       0      -1      26      0.00000000     -0.00070239     -0.06560888      0.00027425       3
Fe             -0.00000000     12.39986936     73.96614228      58       0       0      -1      26      0.00000000      0.00077621     -0.05213005      0.00015287       3
Fe              2.00111219     13.63978602     73.29085349      58       0       0      -1      26      0.00000000      0.00051198     -0.05764846      0.00019179       3
Fe             -0.00000000     14.60369690     75.02707845      58       0       0      -1      26      0.00000000      0.00123163     -0.04183684      0.00009552       3
Fe              2.00111219     15.84385733     74.35287355      58       0       0      -1      26      0.00000000      0.00150307     -0.04760976      0.00012726       3
Fe             -0.00000000     16.80779464     76.08480612      58       0       0      -1      26      0.00000000      0.00190392     -0.03424672      0.00006090       3
Fe              2.00111219     18.04798364     75.41121732      58       0       0      -1      26     -0.00000000      0.00232229     -0.03990029      0.00008751       3
Fe             -0.00000000     19.01181853     77.14072579      58       0       0      -1      26      0.00000000      0.00198806     -0.02784913      0.00004097       3
Fe              2.00111219     20.25184830     76.46815807      58       0       0      -1      26     -0.00000000      0.00214955     -0.03241003      0.00005636       3
Fe             -0.00000000     21.21577856     78.19590305      58       0       0      -1      26     -0.00000000      0.00135957     -0.02035822      0.00002259       3
Fe              2.00111219     22.45570216     77.52434413      58       0       0      -1      26     -0.00000000      0.00155077     -0.02466394      0.00003280       3
Fe             -0.00000000     23.41976720     79.25062651      58       0       0      -1      26     -0.00000000      0.00083340     -0.01346391      0.00001041       3
Fe              2.00111219     24.65966726     78.57969312      58       0       0      -1      26     -0.00000000      0.00106930     -0.01739792      0.00001653       3
Fe             -0.00000000     25.62383666     80.30481274      58       0       0      -1      26      0.00000000      0.00043526     -0.00663906      0.00000250       3
Fe              2.00111219     26.86374443     79.63426727      58       0       0      -1      26     -0.00000000      0.00072982     -0.01119832      0.00000708       3
Fe              2.00111219      0.14237111     69.30941786      58       0       0      -1      26     -0.00000000     -0.00289700     -0.07443513      0.00046341       3
Fe              0.00000000      1.10592850     71.05840976      58       0       0      -1      26      0.00000000      0.00277176     -0.06135564      0.00032585       3
Fe              2.00111219      2.34570244     70.37606514      58       0       0      -1      26     -0.00000000      0.00237193     -0.06260563      0.00033089       3
Fe             -0.00000000      3.30818101     72.12532194      58       0       0      -1      26      0.00000000      0.00352286     -0.05866009      0.00024065       3
Fe              2.00111219      4.54747272     71.44776632      58       0       0      -1      26     -0.00000000      0.00327457     -0.06070969      0.00024840       3
Fe             -0.00000000      5.51098084     73.19275327      58       0       0      -1      26      0.00000000      0.00298402     -0.05684012      0.00020303       3
Fe              2.00111219      6.75070881     72.51827795      58       0       0      -1      26     -0.00000000      0.00265533     -0.06216701      0.00025238       3
Fe              0.00000000      7.71513386     74.25642253      58       0       0      -1      26     -0.00000000      0.00166967     -0.05116444      0.00015439       3
Fe              2.00111219      8.95552053     73.58128552      58       0       0      -1      26      0.00000000      0.00076580     -0.05707731      0.00017519       3
Fe              0.00000000      9.91965578     75.31542265      58       0       0      -1      26     -0.00000000      0.00096376     -0.04205954      0.00009566       3
Fe              2.00111219     11.15990842     74.64095044      58       0       0      -1      26     -0.00000000      0.00049619     -0.04687039      0.00012488       3
Fe              0.00000000     12.12373211     76.37274028      58       0       0      -1      26     -0.00000000      0.00106877     -0.03318622      0.00005815       3
Fe              2.00111219     13.36372199     75.70000473      58       0       0      -1      26     -0.00000000      0.00098047     -0.03785399      0.00007747       3
Fe             -0.00000000     14.32770056     77.42917900      58       0       0      -1      26     -0.00000000      0.00110860     -0.02407967      0.00003065       3
Fe              2.00111219     15.56769852     76.75722280      58       0       0      -1      26     -0.00000000      0.00144684     -0.02901617      0.00004430       3
Fe             -0.00000000     16.53177552     78.48418637      58       0       0      -1      26     -0.00000000      0.00117533     -0.01709680      0.00001592       3
Fe              2.00111219     17.77177267     77.81265788      58       0       0      -1      26      0.00000000      0.00162698     -0.02207896      0.00002611       3
Fe             -0.00000000     18.73585549     79.53834311      58       0       0      -1      26      0.00000000      0.00093184     -0.01164356      0.00000757       3
Fe              2.00111219     19.97581608     78.86726687      58       0       0      -1      26      0.00000000      0.00120202     -0.01595125      0.00001429       3
Fe             -0.00000000     20.93995925     80.59203745      58       0       0      -1      26     -0.00000000      0.00045338     -0.00538449      0.00000178       3
Fe              2.00111219     22.17986857     79.92145074      58       0       0      -1      26     -0.00000000      0.00069086     -0.00956885      0.00000518       3
Fe             -0.00000000      0.82855036     73.48120607      58       0       0      -1      26     -0.00000000      0.00326357     -0.05251300      0.00017186       3
Fe              2.00111219      2.06856550     72.80374257      58       0       0      -1      26     -0.00000000      0.00336073     -0.05679239      0.00020891       3
Fe             -0.00000000      3.03179879     74.54253738      58       0       0      -1      26     -0.00000000      0.00234071     -0.04753027      0.00013557       3
Fe              2.00111219      4.27149114     73.86800468      58       0       0      -1      26     -0.00000000      0.00246582     -0.05131844      0.00015538       3
Fe             -0.00000000      5.23525892     75.60330626      58       0       0      -1      26     -0.00000000      0.00162129     -0.04036088      0.00009391       3
Fe              2.00111219      6.47511641     74.93076202      58       0       0      -1      26     -0.00000000      0.00179650     -0.04637646      0.00012323       3
Fe              0.00000000      7.43938651     76.66151103      58       0       0      -1      26     -0.00000000      0.00101461     -0.03215461      0.00005597       3
Fe              2.00111219      8.67951416     75.98906362      58       0       0      -1      26      0.00000000      0.00102864     -0.03793877      0.00007448       3
Fe             -0.00000000      9.64370521     77.71711657      58       0       0      -1      26      0.00000000      0.00089565     -0.02337232      0.00002888       3
Fe              2.00111219     10.88375760     77.04514456      58       0       0      -1      26      0.00000000      0.00099281     -0.02884535      0.00004380       3
Fe             -0.00000000     11.84782101     78.77178201      58       0       0      -1      26      0.00000000      0.00077665     -0.01575292      0.00001378       3
Fe              2.00111219     13.08776654     78.10055420      58       0       0      -1      26      0.00000000      0.00090418     -0.01994002      0.00002130       3
Fe              0.00000000     14.05188196     79.82600001      58       0       0      -1      26      0.00000000      0.00050837     -0.00873855      0.00000421       3
Fe              2.00111219     15.29180997     79.15520047      58       0       0      -1      26     -0.00000000      0.00079308     -0.01276499      0.00000918       3
Fe              2.00111219     17.49590374     80.20910066      58       0       0      -1      26      0.00000000      0.00054927     -0.00689454      0.00000266       3
Fe             -0.00000000      0.55190145     75.89102637      58       0       0      -1      26     -0.00000000      0.00228423     -0.03809324      0.00008079       3
Fe              2.00111219      1.79191318     75.21714268      58       0       0      -1      26      0.00000000      0.00262253     -0.04371901      0.00010751       3
Fe             -0.00000000      2.75568270     76.94813145      58       0       0      -1      26      0.00000000      0.00135400     -0.03081735      0.00005215       3
Fe              2.00111219      3.99549515     76.27593395      58       0       0      -1      26      0.00000000      0.00156346     -0.03559429      0.00006966       3
Fe             -0.00000000      4.95957704     78.00453935      58       0       0      -1      26      0.00000000      0.00071219     -0.02203713      0.00002687       3
Fe              2.00111219      6.19944007     77.33343398      58       0       0      -1      26     -0.00000000      0.00089244     -0.02690246      0.00003963       3
Fe             -0.00000000      7.16372257     79.05963111      58       0       0      -1      26     -0.00000000      0.00045287     -0.01388524      0.00001117       3
Fe              2.00111219      8.40370143     78.38867859      58       0       0      -1      26      0.00000000      0.00073060     -0.01877039      0.00001898       3