10154
adsorbate_info energy=-43679.95057491 virial="-947.45720467       0.63429798     -11.41038836       0.63429798    -896.83282363      79.93391616     -11.41038836      79.93391616   -1660.91238285" cutoff=5.30000000 nneightol=1.20000000 pbc="T T T" Lattice="24.01334629       0.00000000       0.00000000       0.00000000      29.27374762       0.00000000       0.00000000       0.00000000     165.24711560" Properties=species:S:1:pos:R:3:Z:I:1:map_shift:I:3:n_neighb:I:1:force:R:3:csp:R:1:cna:I:1
Fe             19.80473189     20.11487085     22.51147331      26      -1      -1       0      58     -0.00297099      0.00531123      0.00082444      0.00001413       3
Fe             -0.20106858      1.22832229    125.01603354      26       0       0      -1      62     -0.00558699      0.00916490      0.03462159      8.87147038       0
Fe              1.80239268      2.75232522    124.22213714      26       0       0      -1      58      0.01969049      0.04934935      0.01608078      7.91423040       0
Fe             -0.20850659      3.71911657    125.08946880      26       0       0      -1      52      0.01176620      0.00219826     -0.00525394      5.90568977       0
Fe             21.80399483     19.70184335     23.87817277      26      -1      -1       0      58     -0.00187100      0.00471836     -0.00007037      0.00000897       3
Fe             -0.22139096      2.91923601    127.36178899      26       0       0      -1      57      0.00711988      0.00526055      0.00458125      4.97386127       3
Fe              1.89975721      3.44394006    126.32580884      26       0       0      -1      51     -0.03742148     -0.01872687     -0.04119506      2.03583556       0
Fe             -0.21869599      0.61370311    128.09194072      26       0       0      -1      59      0.00270073      0.00331947     -0.00528068      0.05735696       3
Fe              1.76553256      1.10302611    126.71745791      26       0       0      -1      58      0.00742600     -0.00703855     -0.01595763      0.69279687       3
Fe             -0.21490609      5.41616563    126.54718713      26       0       0      -1      58      0.00421494     -0.00506275      0.00695900      1.14652892       0
Fe              1.80305261      5.52179085    125.10788723      26       0       0      -1      58      0.02119259      0.03136523     -0.02904236      5.74527060       0
Fe             -0.20551054      7.61159265    125.12296273      26       0       0      -1      51      0.00521860     -0.00534926      0.00652606      6.95551938       0
Fe             19.80458243     22.44298325     21.73101182      26      -1      -1       0      58     -0.00202792      0.00524253      0.00122619      0.00001114       3
Fe             -0.20493356     10.02337959    125.12143603      26       0       0      -1      53      0.00313738     -0.00999900      0.00048792      8.66103787       0
Fe             21.80392436     22.02902760     23.09740836      26      -1      -1       0      58     -0.00149470      0.00517526      0.00061771      0.00000823       3
Fe             19.80391121     24.77174058     20.95080465      26      -1      -1       0      58     -0.00045553      0.00445856      0.00072312      0.00000929       3
Fe             -0.22612576      4.44130257    129.28023161      26       0       0      -1      57      0.00322742      0.00311083     -0.00180066      0.02360270       3
Fe              1.77169499      4.92390986    127.96987182      26       0       0      -1      57      0.00524523     -0.00095746     -0.00231336      0.16821808       3
Fe             -0.22847579      2.10714026    130.06633122      26       0       0      -1      59      0.00601918      0.00533103     -0.00460809      0.00446757       3
Fe              1.77436885      2.53592732    128.74198390      26       0       0      -1      58      0.01607351      0.00530174     -0.01393526      0.02764672       3
Fe              1.77804187      0.19218881    129.45141477      26       0       0      -1      58     -0.00161489      0.00454427      0.00026269      0.00661953       3
Fe             -0.22522028      6.77036847    128.53264190      26       0       0      -1      54      0.00213142      0.00126290     -0.00687108      0.12739987       3
Fe              1.77605353      7.14695980    127.02603089      26       0       0      -1      56      0.02364655      0.00980122     -0.01174539     10.91270845       0
Fe             -0.21796344      9.00388234    127.61125365      26       0       0      -1      57      0.00727823      0.00523266      0.00396239      4.04389653       0
Fe              1.79505916      9.43816859    126.31138068      26       0       0      -1      56     -0.00763479      0.01872797      0.00941297      2.62064084       0
Fe             -0.21644689     11.38648114    126.89651917      26       0       0      -1      53      0.00624732      0.00080355      0.00943531      0.31688353       0
Fe              1.81076398     11.80095710    125.24278155      26       0       0      -1      58     -0.00231167      0.00154462     -0.01414859      9.20156899       0
Fe             23.80568752     13.68182394    126.30228246      26      -1       0      -1      54      0.00115600     -0.00224759     -0.00071884      2.69700901       0
Fe              1.80694731     14.18094144    125.12811198      26       0       0      -1      55     -0.00692039      0.00387528      0.02648248      6.65698226       0
Fe             -0.23114568      5.94610578    131.22887393      26       0       0      -1      58      0.00428159      0.00439352      0.00109581      0.00195544       3
Fe              1.77385981      6.37761960    129.87495522      26       0       0      -1      57      0.00018258     -0.00118634     -0.00344025      0.01147154       3
Fe             -0.23144539      3.61607582    132.00678028      26       0       0      -1      58      0.00189265      0.00404947      0.00094322      0.00070338       3
Fe              1.77430991      4.04276410    130.65807602      26       0       0      -1      58     -0.00242731     -0.00018104     -0.00053912      0.00279980       3
Fe             -0.23153516      1.28270403    132.77561985      26       0       0      -1      58      0.00249738      0.00431389      0.00139883      0.00018399       3
Fe              1.77262894      1.69745737    131.41969165      26       0       0      -1      58     -0.00022259      0.00289472      0.00013283      0.00077453       3
Fe             -0.22784365      8.27652160    130.42536739      26       0       0      -1      57      0.00289983      0.00102760      0.00005089      0.00808388       3
Fe              1.77886507      8.65980760    129.02456683      26       0       0      -1      58      0.00467803      0.00188645      0.00380007      0.00629391       3
Fe             -0.22378960     10.56312575    129.59677516      26       0       0      -1      57      0.00311004      0.00474803      0.00870990      0.01558391       3
Fe              1.78421203     10.97246806    128.21062427      26       0       0      -1      55      0.00480936      0.00140351      0.01835475      0.04046056       3
Fe             23.79380690     12.89707627    128.87140910      26      -1       0      -1      58      0.00164036      0.00567976      0.00519444      0.00468158       3
Fe              1.79373115     13.29575693    127.52569102      26       0       0      -1      58     -0.00084678      0.00113939      0.00071973      5.06561500       3
Fe             -0.23444153      7.45051959    133.16595677      26       0       0      -1      58      0.00449746      0.00447214      0.00126777      0.00034341       3
Fe              1.76924348      7.86720219    131.79973839      26       0       0      -1      58      0.00422891      0.00235827      0.00124455      0.00127712       3
Fe             -0.23570885      5.12189350    133.95271612      26       0       0      -1      58      0.00487726      0.00469584      0.00122848      0.00027606       3
Fe              1.76794765      5.54009905    132.59543771      26       0       0      -1      58      0.00373121      0.00244470      0.00006329      0.00068274       3
Fe             -0.23542740      2.79183547    134.72798057      26       0       0      -1      58      0.00487847      0.00427225      0.00069800      0.00008240       3
Fe              1.76735189      3.20577796    133.36887830      26       0       0      -1      58      0.00420120      0.00266927      0.00016435      0.00006286       3
Fe             -0.23497168      0.46406612    135.50087715      26       0       0      -1      58      0.00510525      0.00360031      0.00147767      0.00010978       3
Fe              1.76685144      0.87411892    134.13810491      26       0       0      -1      58      0.00412520      0.00296596     -0.00011728      0.00018952       3
Fe             -0.23162340      9.77105894    132.36754158      26       0       0      -1      58      0.00401057      0.00546640      0.00340975      0.00068943       3
Fe              1.77194051     10.17357842    130.98329186      26       0       0      -1      58      0.00543251      0.00412248      0.00686869      0.00258594       3
Fe             23.78517319     12.08036350    131.57837840      26      -1       0      -1      58      0.00349322      0.00652540      0.00438900      0.00175430       3
Fe              1.77745958     12.48662098    130.21394919      26       0       0      -1      58      0.00308245      0.00614115      0.00521903      0.00451559       3
Fe             23.78698357     14.41202996    130.81551994      26      -1       0      -1      58      0.00148794      0.00602217      0.00145855      0.00069615       3
Fe             -0.23619202      8.95248831    135.11160514      26       0       0      -1      58      0.00511112      0.00415968      0.00167046      0.00007598       3
Fe              1.76550655      9.36400766    133.74280909      26       0       0      -1      58      0.00498582      0.00483779      0.00172422      0.00019309       3
Fe             -0.23771489      6.62783514    135.89822580      26       0       0      -1      58      0.00640938      0.00381272      0.00196955      0.00010332       3
Fe              1.76411102      7.04138476    134.53553416      26       0       0      -1      58      0.00543890      0.00351038      0.00030297      0.00022472       3
Fe             -0.23763074      4.30053053    136.67850804      26       0       0      -1      58      0.00623251      0.00243602      0.00075247      0.00005957       3
Fe              1.76345605      4.71228226    135.31710889      26       0       0      -1      58      0.00631013      0.00307600      0.00026775      0.00007563       3
Fe             -0.23645703      1.97368986    137.45504732      26       0       0      -1      58      0.00515431      0.00341321      0.00093103      0.00004635       3
Fe              1.76396627      2.38330703    136.09216561      26       0       0      -1      58      0.00530525      0.00249999     -0.00053910      0.00005416       3
Fe              1.76466634      0.05727562    136.86745722      26       0       0      -1      58      0.00449447      0.00443401      0.00167950      0.00006682       3
Fe             23.77962219     11.27210677    134.32340938      26      -1       0      -1      58      0.00376293      0.00551325      0.00264488      0.00007902       3
Fe              1.76832977     11.67867580    132.95184706      26       0       0      -1      58      0.00514579      0.00492495      0.00282957      0.00045668       3
Fe             23.78122209     13.59146803    133.54209952      26      -1       0      -1      58      0.00452239      0.00505953      0.00164491      0.00037839       3
Fe              1.77076092     14.00144188    132.17731878      26       0       0      -1      58      0.00306917      0.00342196      0.00085622      0.00069728       3
Fe             23.77750931     10.45682857    137.06196403      26      -1       0      -1      58      0.00351838      0.00449789      0.00298312      0.00002204       3
Fe              1.76497458     10.86587627    135.69468086      26       0       0      -1      58      0.00311630      0.00431597      0.00202903      0.00003297       3
Fe             -0.23699043      8.13393135    137.84610751      26       0       0      -1      58      0.00486508      0.00379008      0.00254261      0.00003907       3
Fe              1.76351640      8.54431097    136.48124672      26       0       0      -1      58      0.00424895      0.00355553      0.00120352      0.00005472       3
Fe             -0.23699049      5.80903825    138.62796457      26       0       0      -1      58      0.00508241      0.00255748      0.00015185      0.00003467       3
Fe              1.76280623      6.21884242    137.26457522      26       0       0      -1      58      0.00535831      0.00307671      0.00073318      0.00004640       3
Fe             -0.23574269      3.48347226    139.40687553      26       0       0      -1      58      0.00427021      0.00361624      0.00015848      0.00002788       3
Fe              1.76336098      3.89205021    138.04342747      26       0       0      -1      58      0.00522706      0.00277867      0.00012936      0.00003334       3
Fe             -0.23408729      1.15916261    140.18539588      26       0       0      -1      58      0.00375315      0.00441326      0.00037802      0.00002460       3
Fe              1.76475598      1.56634770    138.82076646      26       0       0      -1      58      0.00469147      0.00409174      0.00019098      0.00003331       3
Fe             23.77842910     12.77814102    136.27871959      26      -1       0      -1      58      0.00322307      0.00432753      0.00207333      0.00004489       3
Fe              1.76605477     13.18604049    134.91127690      26       0       0      -1      58      0.00396926      0.00471704      0.00208868      0.00016275       3
Fe             23.77847433     11.96388601    139.01368252      26      -1       0      -1      58      0.00422545      0.00487372      0.00150768      0.00001961       3
Fe              1.76505010     12.37154723    137.64741377      26       0       0      -1      58      0.00344274      0.00493060      0.00188816      0.00002652       3
Fe             23.77863687      9.64140893    139.79599291      26      -1       0      -1      58      0.00384716      0.00406302      0.00074242      0.00001921       3
Fe              1.76484713     10.04945847    138.43049833      26       0       0      -1      58      0.00343334      0.00425690      0.00138722      0.00001980       3
Fe             -0.23427477      7.31791030    140.57760267      26       0       0      -1      58      0.00370987      0.00348690     -0.00039350      0.00002024       3
Fe              1.76456057      7.72587240    139.21313535      26       0       0      -1      58      0.00411576      0.00336094      0.00016703      0.00002566       3
Fe             -0.23295776      4.99372520    141.35754285      26       0       0      -1      58      0.00307553      0.00375852     -0.00075609      0.00001759       3
Fe              1.76524596      5.40092257    139.99347863      26       0       0      -1      58      0.00405456      0.00394033     -0.00032639      0.00002312       3
Fe             -0.23106696      2.67003840    142.13671409      26       0       0      -1      58      0.00275947      0.00384043     -0.00054206      0.00001572       3
Fe              1.76687387      3.07619618    140.77228168      26       0       0      -1      58      0.00335603      0.00424130     -0.00061702      0.00002005       3
Fe             -0.22906566      0.34728705    142.91630559      26       0       0      -1      58      0.00227022      0.00336450     -0.00059318      0.00001156       3
Fe              1.76877510      0.75269660    141.55136594      26       0       0      -1      58      0.00275535      0.00415155     -0.00057985      0.00001635       3
Fe             23.77801448     14.28630222    138.23288816      26      -1       0      -1      58      0.00406084      0.00460783      0.00127477      0.00003343       3
Fe             23.78064083     13.47317763    140.96532054      26      -1       0      -1      58      0.00368318      0.00423359     -0.00000679      0.00001745       3
Fe              1.76606974     13.87964819    139.59986823      26       0       0      -1      58      0.00403984      0.00477308      0.00037645      0.00002430       3
Fe             23.78182823     11.15078745    141.74640158      26      -1       0      -1      58      0.00273365      0.00366347     -0.00048087      0.00001334       3
Fe              1.76697455     11.55712374    140.38100656      26       0       0      -1      58      0.00363201      0.00459267      0.00038764      0.00001737       3
Fe             -0.23044317      8.82797365    142.52749451      26       0       0      -1      58      0.00297397      0.00371599     -0.00126795      0.00001430       3
Fe              1.76759979      9.23426547    141.16272162      26       0       0      -1      58      0.00383465      0.00406059     -0.00114760      0.00001791       3
Fe             -0.22886679      6.50478883    143.30770087      26       0       0      -1      58      0.00274115      0.00363944     -0.00148462      0.00001302       3
Fe              1.76864873      6.91060723    141.94330902      26       0       0      -1      58      0.00358147      0.00435212     -0.00131725      0.00001837       3
Fe             -0.22675327      4.18182315    144.08725332      26       0       0      -1      58      0.00242715      0.00311681     -0.00151405      0.00001038       3
Fe              1.77046715      4.58691230    142.72278892      26       0       0      -1      58      0.00301544      0.00426683     -0.00114957      0.00001618       3
Fe             -0.22440535      1.85937380    144.86675421      26       0       0      -1      58      0.00172456      0.00240560     -0.00165437      0.00000709       3
Fe              1.77269265      2.26388191    143.50206094      26       0       0      -1      58      0.00257088      0.00372430     -0.00126835      0.00001273       3
Fe              1.77488172     -0.05850810    144.28177255      26       0       0      -1      58      0.00184159      0.00306278     -0.00135458      0.00000899       3
Fe             23.78603120     12.66189907    143.69664330      26      -1       0      -1      58      0.00196611      0.00280360     -0.00121838      0.00000823       3
Fe              1.77035954     13.06696307    142.33156547      26       0       0      -1      58      0.00286295      0.00405950     -0.00068510      0.00001361       3
Fe             23.78757962     10.33954000    144.47714162      26      -1       0      -1      58      0.00230128      0.00252172     -0.00144091      0.00000759       3
Fe              1.77173132     10.74449339    143.11239389      26       0       0      -1      58      0.00267459      0.00361756     -0.00123060      0.00001177       3
Fe             23.78946677      8.01696827    145.25731385      26      -1       0      -1      58      0.00192746      0.00232256     -0.00162456      0.00000676       3
Fe              1.77318095      8.42164466    143.89288240      26       0       0      -1      58      0.00288242      0.00352870     -0.00177878      0.00001209       3
Fe             -0.22147095      5.69447076    146.03707209      26       0       0      -1      58      0.00102179      0.00176779     -0.00202976      0.00000456       3
Fe              1.77523503      6.09870650    144.67265863      26       0       0      -1      58      0.00241589      0.00335083     -0.00184704      0.00001078       3
Fe             -0.21888417      3.37220806    146.81656162      26       0       0      -1      58      0.00013117      0.00102193     -0.00212788      0.00000261       3
Fe              1.77772267      3.77611178    145.45206789      26       0       0      -1      58      0.00162682      0.00269940     -0.00184194      0.00000770       3
Fe             -0.21653296      1.05010247    147.59602354      26       0       0      -1      58     -0.00022963      0.00032850     -0.00184618      0.00000146       3
Fe              1.78020468      1.45390074    146.23155320      26       0       0      -1      58      0.00074638      0.00185769     -0.00199349      0.00000482       3
Fe             23.79110725     14.17414647    145.64654220      26      -1       0      -1      58      0.00117457      0.00164907     -0.00176610      0.00000424       3
Fe             23.79300094     11.85203345    146.42652295      26      -1       0      -1      58      0.00104972      0.00116577     -0.00170335      0.00000289       3
Fe              1.77674244     12.25617079    145.06194726      26       0       0      -1      58      0.00147456      0.00251442     -0.00168089      0.00000664       3
Fe             23.79495010      9.52980370    147.20646100      26      -1       0      -1      58      0.00116885      0.00069461     -0.00164905      0.00000250       3
Fe              1.77845878      9.93382192    145.84208009      26       0       0      -1      58      0.00198222      0.00212092     -0.00178820      0.00000622       3
Fe             23.79740647      7.20754226    147.98620869      26      -1       0      -1      58      0.00041305     -0.00003049     -0.00174369      0.00000138       3
Fe              1.78070028      7.61137618    146.62189094      26       0       0      -1      58      0.00127204      0.00165973     -0.00179686      0.00000486       3
Fe             -0.21327207      4.88527066    148.76569770      26       0       0      -1      58     -0.00035646     -0.00074591     -0.00172388      0.00000093       3
Fe              1.78336603      5.28902819    147.40140208      26       0       0      -1      58      0.00018398      0.00101968     -0.00184424      0.00000302       3
Fe             -0.21082692      2.56295557    149.54500875      26       0       0      -1      58     -0.00049260     -0.00139464     -0.00130142      0.00000100       3
Fe              1.78596464      2.96682066    148.18077400      26       0       0      -1      58     -0.00039955      0.00024823     -0.00169469      0.00000176       3
Fe             -0.20871417      0.24055092    150.32433182      26       0       0      -1      58     -0.00009106     -0.00206599     -0.00075849      0.00000140       3
Fe              1.78819537      0.64463352    148.96014793      26       0       0      -1      58     -0.00021890     -0.00046934     -0.00120577      0.00000108       3
Fe             23.79878527     13.36486657    148.37558175      26      -1       0      -1      58      0.00022107     -0.00032823     -0.00137337      0.00000080       3
Fe              1.78230551     13.76870031    147.01122875      26       0       0      -1      58      0.00072069      0.00115031     -0.00182539      0.00000310       3
Fe             23.80075272     11.04266768    149.15525176      26      -1       0      -1      58      0.00056834     -0.00109972     -0.00117463      0.00000093       3
Fe              1.78422211     11.44654477    147.79098280      26       0       0      -1      58      0.00097807      0.00059259     -0.00148452      0.00000241       3
Fe             23.80306031      8.72033505    149.93490882      26      -1       0      -1      58      0.00027877     -0.00190791     -0.00130387      0.00000139       3
Fe              1.78639695      9.12429604    148.57067904      26       0       0      -1      58      0.00077215     -0.00010648     -0.00143702      0.00000188       3
Fe             23.80559048      6.39780990    150.71437308      26      -1       0      -1      58      0.00009129     -0.00263815     -0.00125577      0.00000229       3
Fe              1.78896471      6.80197683    149.35019604      26       0       0      -1      58      0.00024091     -0.00090140     -0.00140295      0.00000126       3
Fe             -0.20528706      4.07505532    151.49364193      26       0       0      -1      58      0.00017930     -0.00326220     -0.00088357      0.00000344       3
Fe              1.79156878      4.47956187    150.12953156      26       0       0      -1      58     -0.00004206     -0.00162699     -0.00116157      0.00000130       3
Fe             -0.20300932      1.75207887    152.27288422      26       0       0      -1      58      0.00041331     -0.00386468     -0.00047679      0.00000490       3
Fe              1.79392270      2.15700658    150.90877846      26       0       0      -1      58      0.00010914     -0.00226492     -0.00066105      0.00000180       3
Fe             23.80665890     12.55488645    151.10380389      26      -1       0      -1      58      0.00024204     -0.00283882     -0.00059816      0.00000251       3
Fe              1.79017337     12.95923518    149.73961617      26       0       0      -1      58      0.00028958     -0.00117695     -0.00080164      0.00000109       3
Fe             23.80887076     10.23212812    151.88335465      26      -1       0      -1      58      0.00030133     -0.00361432     -0.00075147      0.00000419       3
Fe              1.79228142     10.63682866    150.51916864      26       0       0      -1      58      0.00049467     -0.00200352     -0.00076195      0.00000170       3
Fe             23.81130878      7.90904745    152.66281110      26      -1       0      -1      58      0.00021290     -0.00432072     -0.00087392      0.00000622       3
Fe              1.79469969      8.31421546    151.29867438      26       0       0      -1      58      0.00026821     -0.00280301     -0.00089716      0.00000258       3
Fe             -0.19955058      5.58559768    153.44210106      26       0       0      -1      58      0.00022930     -0.00498798     -0.00068102      0.00000859       3
Fe              1.79721809      5.99133342    152.07802012      26       0       0      -1      58      0.00027451     -0.00350263     -0.00078593      0.00000389       3
Fe             -0.19713516      3.26178990    154.22134231      26       0       0      -1      58      0.00028822     -0.00572296     -0.00036837      0.00001153       3
Fe              1.79965408      3.66815948    152.85725779      26       0       0      -1      58      0.00042036     -0.00414324     -0.00044790      0.00000557       3
Fe             -0.19479681      0.93760852    155.00066951      26       0       0      -1      58      0.00019265     -0.00654836     -0.00023708      0.00001495       3
Fe              1.80196625      1.34470008    153.63653665      26       0       0      -1      58      0.00053368     -0.00481415     -0.00016920      0.00000783       3
Fe             23.81252604     14.06574606    153.05225418      26      -1       0      -1      58      0.00051113     -0.00453669     -0.00035346      0.00000701       3
Fe              1.79606576     14.47116112    151.68809384      26       0       0      -1      58      0.00040356     -0.00295056     -0.00026613      0.00000284       3
Fe             23.81479268     11.74222515    153.83172647      26      -1       0      -1      58      0.00044612     -0.00529947     -0.00044562      0.00000999       3
Fe              1.79823960     12.14823215    152.46755007      26       0       0      -1      58      0.00042749     -0.00370808     -0.00030981      0.00000446       3
Fe             23.81720537      9.41826460    154.61115684      26      -1       0      -1      58      0.00025116     -0.00610953     -0.00049520      0.00001343       3
Fe              1.80058159      9.82499359    153.24703185      26       0       0      -1      58      0.00038108     -0.00449024     -0.00048798      0.00000677       3
Fe             -0.19363090      7.09379476    155.39046551      26       0       0      -1      58     -0.00004272     -0.00696636     -0.00028417      0.00001677       3
Fe              1.80307407      7.50135477    154.02640425      26       0       0      -1      58      0.00030090     -0.00529128     -0.00044349      0.00000965       3
Fe             23.82221940      4.76881329    156.16973502      26      -1       0      -1      58     -0.00043938     -0.00780729     -0.00001351      0.00002013       3
Fe              1.80558988      5.17727703    154.80567262      26       0       0      -1      58      0.00017173     -0.00611978     -0.00019461      0.00001290       3
Fe             -0.18871633      2.44332292    156.94908530      26       0       0      -1      58     -0.00086343     -0.00855491      0.00026692      0.00002425       3
Fe              1.80804510      2.85275946    155.58496190      26       0       0      -1      58     -0.00010960     -0.00701181      0.00000018      0.00001640       3
Fe             -0.18643016      0.11725023    157.72853331      26       0       0      -1      58     -0.00126696     -0.00914607      0.00062236      0.00002912       3
Fe              1.81040613      0.52776072    156.36435154      26       0       0      -1      58     -0.00039605     -0.00791300      0.00006167      0.00002015       3
Fe             23.82086880     13.24984005    155.78008635      26      -1       0      -1      58     -0.00005418     -0.00743746     -0.00025680      0.00001851       3
Fe              1.80424470     13.65779116    154.41594102      26       0       0      -1      58      0.00051407     -0.00562144     -0.00015859      0.00001097       3
Fe             23.82323269     10.92463011    156.55949571      26      -1       0      -1      58     -0.00040750     -0.00818219      0.00000081      0.00002211       3
Fe              1.80660341     11.33356776    155.19538801      26       0       0      -1      58      0.00027877     -0.00651236     -0.00021899      0.00001460       3