150
energy=-49594.76132143 virial="16.69197835       0.00000000       0.00000000       0.00000000    -218.61382918       0.22459700       0.00000000       0.22459700      -1.33607308" adsorbate_info cutoff=-1.00000000 nneightol=1.20000000 pbc="T T T" Lattice="16.98000000       0.00000000       0.00000000       0.00000000       9.22008843       0.00000000       0.00000000       0.00000000       9.21017992" Properties=species:S:1:pos:R:3:n_neighb:I:1:map_shift:I:3:Z:I:1:force:R:3:csp:R:1:cna:I:1
Fe             -0.00000000      0.76439324      9.21017992      58       0       0      -1      26     -0.00000000      0.00014713      0.00039847      0.00000005       3
Fe             -0.00000000      3.58296888      8.95426696      58       0       0      -1      26     -0.00000000      0.00011453      0.00032965      0.00000002       3
Fe             -0.00000000      0.50966411      6.39608001      58       0       0      -1      26     -0.00000000     -0.00000515     -0.00017351      0.00000001       3
Fe              1.41500000      2.04627787      7.67521013      58       0       0      -1      26     -0.00000000      0.00006811      0.00003782      0.00000002       3
Fe             -0.00000000      3.32816913      6.14026805      58       0       0      -1      26     -0.00000000     -0.00001217     -0.00025973      0.00000003       3
Fe              1.41500000      4.86485502      7.41934017      58       0       0      -1      26     -0.00000000      0.00001851     -0.00000066      0.00000000       3
Fe             -0.00000000      5.63687047      0.25583534      58       0       0       0      26     -0.00000000     -0.00035761     -0.00116239      0.00000017       3
Fe             -0.00000000      2.81843475      0.51154918      58       0       0       0      26     -0.00000000     -0.00026804     -0.00115460      0.00000007       3
Fe             -0.00000000      0.00000000      0.76732929      58       0       0       0      26     -0.00000000     -0.00015804     -0.00116570      0.00000006       3
Fe             -0.00000000      5.89186424      3.07029071      58       0       0       0      26     -0.00000000     -0.00016829     -0.00070276      0.00000005       3
Fe              1.41500000      4.35514996      1.79099728      58       0       0       0      26     -0.00000000     -0.00026897     -0.00087405      0.00000007       3
Fe             -0.00000000      3.07336661      3.32608004      58       0       0       0      26     -0.00000000     -0.00016770     -0.00065298      0.00000004       3
Fe              1.41500000      1.53670293      2.04674428      58       0       0       0      26     -0.00000000     -0.00020768     -0.00085735      0.00000004       3
Fe             -0.00000000      0.25492430      3.58185215      58       0       0       0      26     -0.00000000     -0.00016128     -0.00059681      0.00000003       3
Fe              1.41500000      4.61003352      4.60530280      58       0       0       0      26     -0.00000000     -0.00008573     -0.00049333      0.00000003       3
Fe              1.41500000      1.79153692      4.86110358      58       0       0       0      26     -0.00000000     -0.00008427     -0.00043657      0.00000002       3
Fe             -0.00000000      6.40156473      8.69839806      58       0      -1      -1      26     -0.00000000      0.00006647      0.00030036      0.00000002       3
Fe             -0.00000000      9.22008843      8.44260001      58       0      -1      -1      26     -0.00000000      0.00004388      0.00028479      0.00000003       3
Fe              1.41500000      7.68343476      7.16347610      58       0      -1      -1      26     -0.00000000     -0.00003343      0.00001432      0.00000001       3
Fe             -0.00000000      8.45534140      0.00000000      58       0      -1       0      26     -0.00000000     -0.00031756     -0.00125820      0.00000020       3
Fe             -0.00000000      8.71041780      2.81442265      58       0      -1       0      26     -0.00000000     -0.00015649     -0.00076162      0.00000005       3
Fe              1.41500000      7.17365007      1.53520830      58       0      -1       0      26     -0.00000000     -0.00026419     -0.00095079      0.00000010       3
Fe             -0.00000000      8.96530021      5.62853571      58       0      -1       0      26     -0.00000000     -0.00010019     -0.00023733      0.00000001       3
Fe              1.41500000      7.42858872      4.34944754      58       0      -1       0      26     -0.00000000     -0.00010842     -0.00050134      0.00000002       3
Fe             -0.00000000      6.14673240      5.88441100      58       0       0       0      26     -0.00000000     -0.00005541     -0.00026534      0.00000001       3
Fe              2.83000000      0.76439324      9.21017992      58       0       0      -1      26      0.00000000      0.00014713      0.00039847      0.00000005       3
Fe              2.83000000      3.58296888      8.95426696      58       0       0      -1      26      0.00000000      0.00011453      0.00032965      0.00000002       3
Fe              2.83000000      0.50966411      6.39608001      58       0       0      -1      26      0.00000000     -0.00000515     -0.00017351      0.00000001       3
Fe              4.24500000      2.04627787      7.67521013      58       0       0      -1      26      0.00000000      0.00006811      0.00003782      0.00000002       3
Fe              2.83000000      3.32816913      6.14026805      58       0       0      -1      26      0.00000000     -0.00001217     -0.00025973      0.00000003       3
Fe              4.24500000      4.86485502      7.41934017      58       0       0      -1      26     -0.00000000      0.00001851     -0.00000066      0.00000000       3
Fe              2.83000000      5.63687047      0.25583534      58       0       0       0      26      0.00000000     -0.00035761     -0.00116239      0.00000017       3
Fe              2.83000000      2.81843475      0.51154918      58       0       0       0      26      0.00000000     -0.00026804     -0.00115460      0.00000007       3
Fe              2.83000000      0.00000000      0.76732929      58       0       0       0      26     -0.00000000     -0.00015804     -0.00116570      0.00000006       3
Fe              2.83000000      5.89186424      3.07029071      58       0       0       0      26     -0.00000000     -0.00016829     -0.00070276      0.00000005       3
Fe              4.24500000      4.35514996      1.79099728      58       0       0       0      26     -0.00000000     -0.00026897     -0.00087405      0.00000007       3
Fe              2.83000000      3.07336661      3.32608004      58       0       0       0      26     -0.00000000     -0.00016770     -0.00065298      0.00000004       3
Fe              4.24500000      1.53670293      2.04674428      58       0       0       0      26     -0.00000000     -0.00020768     -0.00085735      0.00000004       3
Fe              2.83000000      0.25492430      3.58185215      58       0       0       0      26     -0.00000000     -0.00016128     -0.00059681      0.00000003       3
Fe              4.24500000      4.61003352      4.60530280      58       0       0       0      26     -0.00000000     -0.00008573     -0.00049333      0.00000003       3
Fe              4.24500000      1.79153692      4.86110358      58       0       0       0      26     -0.00000000     -0.00008427     -0.00043657      0.00000002       3
Fe              2.83000000      6.40156473      8.69839806      58       0      -1      -1      26      0.00000000      0.00006647      0.00030036      0.00000002       3
Fe              2.83000000      9.22008843      8.44260001      58       0      -1      -1      26     -0.00000000      0.00004388      0.00028479      0.00000003       3
Fe              4.24500000      7.68343476      7.16347610      58       0      -1      -1      26     -0.00000000     -0.00003343      0.00001432      0.00000001       3
Fe              2.83000000      8.45534140      0.00000000      58       0      -1       0      26      0.00000000     -0.00031756     -0.00125820      0.00000020       3
Fe              2.83000000      8.71041780      2.81442265      58       0      -1       0      26     -0.00000000     -0.00015649     -0.00076162      0.00000005       3
Fe              4.24500000      7.17365007      1.53520830      58       0      -1       0      26     -0.00000000     -0.00026419     -0.00095079      0.00000010       3
Fe              2.83000000      8.96530021      5.62853571      58       0      -1       0      26      0.00000000     -0.00010019     -0.00023733      0.00000001       3
Fe              4.24500000      7.42858872      4.34944754      58       0      -1       0      26      0.00000000     -0.00010842     -0.00050134      0.00000002       3
Fe              2.83000000      6.14673240      5.88441100      58       0       0       0      26      0.00000000     -0.00005541     -0.00026534      0.00000001       3
Fe              5.66000000      0.76439324      9.21017992      58       0       0      -1      26      0.00000000      0.00014713      0.00039847      0.00000005       3
Fe              5.66000000      3.58296888      8.95426696      58       0       0      -1      26     -0.00000000      0.00011453      0.00032965      0.00000002       3
Fe              5.66000000      0.50966411      6.39608001      58       0       0      -1      26      0.00000000     -0.00000515     -0.00017351      0.00000001       3
Fe              7.07500000      2.04627787      7.67521013      58       0       0      -1      26     -0.00000000      0.00006811      0.00003782      0.00000002       3
Fe              5.66000000      3.32816913      6.14026805      58       0       0      -1      26     -0.00000000     -0.00001217     -0.00025973      0.00000003       3
Fe              7.07500000      4.86485502      7.41934017      58       0       0      -1      26     -0.00000000      0.00001851     -0.00000066      0.00000000       3
Fe              5.66000000      5.63687047      0.25583534      58       0       0       0      26      0.00000000     -0.00035761     -0.00116239      0.00000017       3
Fe              5.66000000      2.81843475      0.51154918      58       0       0       0      26      0.00000000     -0.00026804     -0.00115460      0.00000007       3
Fe              5.66000000      0.00000000      0.76732929      58       0       0       0      26     -0.00000000     -0.00015804     -0.00116570      0.00000006       3
Fe              5.66000000      5.89186424      3.07029071      58       0       0       0      26     -0.00000000     -0.00016829     -0.00070276      0.00000005       3
Fe              7.07500000      4.35514996      1.79099728      58       0       0       0      26     -0.00000000     -0.00026897     -0.00087405      0.00000007       3
Fe              5.66000000      3.07336661      3.32608004      58       0       0       0      26     -0.00000000     -0.00016770     -0.00065298      0.00000004       3
Fe              7.07500000      1.53670293      2.04674428      58       0       0       0      26     -0.00000000     -0.00020768     -0.00085735      0.00000004       3
Fe              5.66000000      0.25492430      3.58185215      58       0       0       0      26     -0.00000000     -0.00016128     -0.00059681      0.00000003       3
Fe              7.07500000      4.61003352      4.60530280      58       0       0       0      26     -0.00000000     -0.00008573     -0.00049333      0.00000003       3
Fe              7.07500000      1.79153692      4.86110358      58       0       0       0      26     -0.00000000     -0.00008427     -0.00043657      0.00000002       3
Fe              5.66000000      6.40156473      8.69839806      58       0      -1      -1      26      0.00000000      0.00006647      0.00030036      0.00000002       3
Fe              5.66000000      9.22008843      8.44260001      58       0      -1      -1      26     -0.00000000      0.00004388      0.00028479      0.00000003       3
Fe              7.07500000      7.68343476      7.16347610      58       0      -1      -1      26     -0.00000000     -0.00003343      0.00001432      0.00000001       3
Fe              5.66000000      8.45534140      0.00000000      58       0      -1       0      26      0.00000000     -0.00031756     -0.00125820      0.00000020       3
Fe              5.66000000      8.71041780      2.81442265      58       0      -1       0      26     -0.00000000     -0.00015649     -0.00076162      0.00000005       3
Fe              7.07500000      7.17365007      1.53520830      58       0      -1       0      26     -0.00000000     -0.00026419     -0.00095079      0.00000010       3
Fe              5.66000000      8.96530021      5.62853571      58       0      -1       0      26     -0.00000000     -0.00010019     -0.00023733      0.00000001       3
Fe              7.07500000      7.42858872      4.34944754      58       0      -1       0      26     -0.00000000     -0.00010842     -0.00050134      0.00000002       3
Fe              5.66000000      6.14673240      5.88441100      58       0       0       0      26      0.00000000     -0.00005541     -0.00026534      0.00000001       3
Fe              8.49000000      0.76439324      9.21017992      58      -1       0      -1      26     -0.00000000      0.00014713      0.00039847      0.00000005       3
Fe              8.49000000      3.58296888      8.95426696      58      -1       0      -1      26     -0.00000000      0.00011453      0.00032965      0.00000002       3
Fe              8.49000000      0.50966411      6.39608001      58      -1       0      -1      26     -0.00000000     -0.00000515     -0.00017351      0.00000001       3
Fe              9.90500000      2.04627787      7.67521013      58      -1       0      -1      26      0.00000000      0.00006811      0.00003782      0.00000002       3
Fe              8.49000000      3.32816913      6.14026805      58      -1       0      -1      26     -0.00000000     -0.00001217     -0.00025973      0.00000003       3
Fe              9.90500000      4.86485502      7.41934017      58      -1       0      -1      26      0.00000000      0.00001851     -0.00000066      0.00000000       3
Fe              8.49000000      5.63687047      0.25583534      58      -1       0       0      26     -0.00000000     -0.00035761     -0.00116239      0.00000017       3
Fe              8.49000000      2.81843475      0.51154918      58      -1       0       0      26     -0.00000000     -0.00026804     -0.00115460      0.00000007       3
Fe              8.49000000      0.00000000      0.76732929      58      -1       0       0      26     -0.00000000     -0.00015804     -0.00116570      0.00000006       3
Fe              8.49000000      5.89186424      3.07029071      58      -1       0       0      26     -0.00000000     -0.00016829     -0.00070276      0.00000005       3
Fe              9.90500000      4.35514996      1.79099728      58      -1       0       0      26      0.00000000     -0.00026897     -0.00087405      0.00000007       3
Fe              8.49000000      3.07336661      3.32608004      58      -1       0       0      26     -0.00000000     -0.00016770     -0.00065298      0.00000004       3
Fe              9.90500000      1.53670293      2.04674428      58      -1       0       0      26      0.00000000     -0.00020768     -0.00085735      0.00000004       3
Fe              8.49000000      0.25492430      3.58185215      58      -1       0       0      26     -0.00000000     -0.00016128     -0.00059681      0.00000003       3
Fe              9.90500000      4.61003352      4.60530280      58      -1       0       0      26      0.00000000     -0.00008573     -0.00049333      0.00000003       3
Fe              9.90500000      1.79153692      4.86110358      58      -1       0       0      26      0.00000000     -0.00008427     -0.00043657      0.00000002       3
Fe              8.49000000      6.40156473      8.69839806      58      -1      -1      -1      26     -0.00000000      0.00006647      0.00030036      0.00000002       3
Fe              8.49000000      9.22008843      8.44260001      58      -1      -1      -1      26     -0.00000000      0.00004388      0.00028479      0.00000003       3
Fe              9.90500000      7.68343476      7.16347610      58      -1      -1      -1      26      0.00000000     -0.00003343      0.00001432      0.00000001       3
Fe              8.49000000      8.45534140      0.00000000      58      -1      -1       0      26     -0.00000000     -0.00031756     -0.00125820      0.00000020       3
Fe              8.49000000      8.71041780      2.81442265      58      -1      -1       0      26     -0.00000000     -0.00015649     -0.00076162      0.00000005       3
Fe              9.90500000      7.17365007      1.53520830      58      -1      -1       0      26      0.00000000     -0.00026419     -0.00095079      0.00000010       3
Fe              8.49000000      8.96530021      5.62853571      58      -1      -1       0      26     -0.00000000     -0.00010019     -0.00023733      0.00000001       3
Fe              9.90500000      7.42858872      4.34944754      58      -1      -1       0      26      0.00000000     -0.00010842     -0.00050134      0.00000002       3
Fe              8.49000000      6.14673240      5.88441100      58      -1       0       0      26     -0.00000000     -0.00005541     -0.00026534      0.00000001       3
Fe             11.32000000      0.76439324      9.21017992      58      -1       0      -1      26     -0.00000000      0.00014713      0.00039847      0.00000005       3
Fe             11.32000000      3.58296888      8.95426696      58      -1       0      -1      26     -0.00000000      0.00011453      0.00032965      0.00000002       3
Fe             11.32000000      0.50966411      6.39608001      58      -1       0      -1      26     -0.00000000     -0.00000515     -0.00017351      0.00000001       3
Fe             12.73500000      2.04627787      7.67521013      58      -1       0      -1      26      0.00000000      0.00006811      0.00003782      0.00000002       3
Fe             11.32000000      3.32816913      6.14026805      58      -1       0      -1      26     -0.00000000     -0.00001217     -0.00025973      0.00000003       3
Fe             12.73500000      4.86485502      7.41934017      58      -1       0      -1      26      0.00000000      0.00001851     -0.00000066      0.00000000       3
Fe             11.32000000      5.63687047      0.25583534      58      -1       0       0      26     -0.00000000     -0.00035761     -0.00116239      0.00000017       3
Fe             11.32000000      2.81843475      0.51154918      58      -1       0       0      26     -0.00000000     -0.00026804     -0.00115460      0.00000007       3
Fe             11.32000000      0.00000000      0.76732929      58      -1       0       0      26     -0.00000000     -0.00015804     -0.00116570      0.00000006       3
Fe             11.32000000      5.89186424      3.07029071      58      -1       0       0      26     -0.00000000     -0.00016829     -0.00070276      0.00000005       3
Fe             12.73500000      4.35514996      1.79099728      58      -1       0       0      26      0.00000000     -0.00026897     -0.00087405      0.00000007       3
Fe             11.32000000      3.07336661      3.32608004      58      -1       0       0      26     -0.00000000     -0.00016770     -0.00065298      0.00000004       3
Fe             12.73500000      1.53670293      2.04674428      58      -1       0       0      26      0.00000000     -0.00020768     -0.00085735      0.00000004       3
Fe             11.32000000      0.25492430      3.58185215      58      -1       0       0      26     -0.00000000     -0.00016128     -0.00059681      0.00000003       3
Fe             12.73500000      4.61003352      4.60530280      58      -1       0       0      26      0.00000000     -0.00008573     -0.00049333      0.00000003       3
Fe             12.73500000      1.79153692      4.86110358      58      -1       0       0      26      0.00000000     -0.00008427     -0.00043657      0.00000002       3
Fe             11.32000000      6.40156473      8.69839806      58      -1      -1      -1      26     -0.00000000      0.00006647      0.00030036      0.00000002       3
Fe             11.32000000      9.22008843      8.44260001      58      -1      -1      -1      26     -0.00000000      0.00004388      0.00028479      0.00000003       3
Fe             12.73500000      7.68343476      7.16347610      58      -1      -1      -1      26      0.00000000     -0.00003343      0.00001432      0.00000001       3
Fe             11.32000000      8.45534140      0.00000000      58      -1      -1       0      26     -0.00000000     -0.00031756     -0.00125820      0.00000020       3
Fe             11.32000000      8.71041780      2.81442265      58      -1      -1       0      26     -0.00000000     -0.00015649     -0.00076162      0.00000005       3
Fe             12.73500000      7.17365007      1.53520830      58      -1      -1       0      26      0.00000000     -0.00026419     -0.00095079      0.00000010       3
Fe             11.32000000      8.96530021      5.62853571      58      -1      -1       0      26     -0.00000000     -0.00010019     -0.00023733      0.00000001       3
Fe             12.73500000      7.42858872      4.34944754      58      -1      -1       0      26      0.00000000     -0.00010842     -0.00050134      0.00000002       3
Fe             11.32000000      6.14673240      5.88441100      58      -1       0       0      26     -0.00000000     -0.00005541     -0.00026534      0.00000001       3
Fe             14.15000000      0.76439324      9.21017992      58      -1       0      -1      26     -0.00000000      0.00014713      0.00039847      0.00000005       3
Fe             14.15000000      3.58296888      8.95426696      58      -1       0      -1      26     -0.00000000      0.00011453      0.00032965      0.00000002       3
Fe             14.15000000      0.50966411      6.39608001      58      -1       0      -1      26     -0.00000000     -0.00000515     -0.00017351      0.00000001       3
Fe             15.56500000      2.04627787      7.67521013      58      -1       0      -1      26      0.00000000      0.00006811      0.00003782      0.00000002       3
Fe             14.15000000      3.32816913      6.14026805      58      -1       0      -1      26     -0.00000000     -0.00001217     -0.00025973      0.00000003       3
Fe             15.56500000      4.86485502      7.41934017      58      -1       0      -1      26      0.00000000      0.00001851     -0.00000066      0.00000000       3
Fe             14.15000000      5.63687047      0.25583534      58      -1       0       0      26     -0.00000000     -0.00035761     -0.00116239      0.00000017       3
Fe             14.15000000      2.81843475      0.51154918      58      -1       0       0      26     -0.00000000     -0.00026804     -0.00115460      0.00000007       3
Fe             14.15000000      0.00000000      0.76732929      58      -1       0       0      26     -0.00000000     -0.00015804     -0.00116570      0.00000006       3
Fe             14.15000000      5.89186424      3.07029071      58      -1       0       0      26     -0.00000000     -0.00016829     -0.00070276      0.00000005       3
Fe             15.56500000      4.35514996      1.79099728      58      -1       0       0      26      0.00000000     -0.00026897     -0.00087405      0.00000007       3
Fe             14.15000000      3.07336661      3.32608004      58      -1       0       0      26     -0.00000000     -0.00016770     -0.00065298      0.00000004       3
Fe             15.56500000      1.53670293      2.04674428      58      -1       0       0      26      0.00000000     -0.00020768     -0.00085735      0.00000004       3
Fe             14.15000000      0.25492430      3.58185215      58      -1       0       0      26     -0.00000000     -0.00016128     -0.00059681      0.00000003       3
Fe             15.56500000      4.61003352      4.60530280      58      -1       0       0      26      0.00000000     -0.00008573     -0.00049333      0.00000003       3
Fe             15.56500000      1.79153692      4.86110358      58      -1       0       0      26      0.00000000     -0.00008427     -0.00043657      0.00000002       3
Fe             14.15000000      6.40156473      8.69839806      58      -1      -1      -1      26     -0.00000000      0.00006647      0.00030036      0.00000002       3
Fe             14.15000000      9.22008843      8.44260001      58      -1      -1      -1      26     -0.00000000      0.00004388      0.00028479      0.00000003       3
Fe             15.56500000      7.68343476      7.16347610      58      -1      -1      -1      26      0.00000000     -0.00003343      0.00001432      0.00000001       3
Fe             14.15000000      8.45534140      0.00000000      58      -1      -1       0      26     -0.00000000     -0.00031756     -0.00125820      0.00000020       3
Fe             14.15000000      8.71041780      2.81442265      58      -1      -1       0      26     -0.00000000     -0.00015649     -0.00076162      0.00000005       3
Fe             15.56500000      7.17365007      1.53520830      58      -1      -1       0      26      0.00000000     -0.00026419     -0.00095079      0.00000010       3
Fe             14.15000000      8.96530021      5.62853571      58      -1      -1       0      26     -0.00000000     -0.00010019     -0.00023733      0.00000001       3
Fe             15.56500000      7.42858872      4.34944754      58      -1      -1       0      26      0.00000000     -0.00010842     -0.00050134      0.00000002       3
Fe             14.15000000      6.14673240      5.88441100      58      -1       0       0      26     -0.00000000     -0.00005541     -0.00026534      0.00000001       3
