ITEM: TIMESTEP
0
ITEM: NUMBER OF ATOMS
644
ITEM: BOX BOUNDS ss pp pp
-4.3944 3.0439
0.3834 31.1140
0.0060 30.1621
ITEM: ATOMS id type x y z c_cna c_csd 
5247 1 -3.82421 2.08865 2.19562 1 1.87844e-01
5258 1 -1.77824 1.25227 1.46247 5 8.15426e+00
6253 2 0.42759 1.25265 1.46374 5 8.15603e+00
6256 2 2.47340 2.08936 2.19732 1 1.87712e-01
5253 1 -1.85174 3.65142 2.12973 5 3.77541e+00
5260 1 -0.67539 4.39531 0.00601 5 6.10766e+00
6250 2 0.50102 3.65226 2.13070 5 3.77495e+00
5251 1 -2.95204 5.28199 0.63355 1 4.89169e-01
5254 1 -3.46087 7.50046 1.45759 1 6.88431e-01
6249 2 -0.67562 6.89474 0.64823 5 9.05586e+00
6252 2 1.60100 5.28283 0.63474 1 4.91296e-01
6263 2 2.11043 7.50111 1.45929 1 6.90644e-01
5235 1 -3.82421 9.95961 2.19562 1 1.87844e-01
5255 1 -1.77824 9.12323 1.46247 5 8.15426e+00
6261 2 0.42759 9.12361 1.46374 5 8.15603e+00
6264 2 2.47340 9.96032 2.19732 1 1.87712e-01
5241 1 -1.85174 11.52240 2.12973 5 3.77541e+00
5257 1 -0.67539 12.26630 0.00601 5 6.10766e+00
6258 2 0.50102 11.52320 2.13070 5 3.77495e+00
5239 1 -2.95204 13.15290 0.63355 1 4.89169e-01
5242 1 -3.46087 15.37140 1.45759 1 6.88431e-01
6257 2 -0.67562 14.76570 0.64823 5 9.05586e+00
6260 2 1.60100 13.15380 0.63474 1 4.91296e-01
6281 2 2.11043 15.37210 1.45929 1 6.90644e-01
5213 1 -3.82421 17.83060 2.19562 1 1.87844e-01
5243 1 -1.77824 16.99420 1.46247 5 8.15426e+00
6279 2 0.42759 16.99460 1.46374 5 8.15603e+00
6282 2 2.47340 17.83130 2.19732 1 1.87712e-01
5219 1 -1.85174 19.39330 2.12973 5 3.77541e+00
5245 1 -0.67539 20.13720 0.00601 5 6.10766e+00
6276 2 0.50102 19.39420 2.13070 5 3.77495e+00
5217 1 -2.95204 21.02390 0.63355 1 4.89169e-01
5220 1 -3.46087 23.24240 1.45759 1 6.88431e-01
6275 2 -0.67562 22.63670 0.64823 5 9.05586e+00
6278 2 1.60100 21.02470 0.63474 1 4.91296e-01
6309 2 2.11043 23.24300 1.45929 1 6.90644e-01
5184 1 -3.82421 25.70150 2.19562 1 1.87844e-01
5221 1 -1.77824 24.86520 1.46247 5 8.15426e+00
6307 2 0.42759 24.86550 1.46374 5 8.15603e+00
6310 2 2.47340 25.70220 2.19732 1 1.87712e-01
5190 1 -1.85174 27.26430 2.12973 5 3.77541e+00
5223 1 -0.67539 28.00820 0.00601 5 6.10766e+00
6304 2 0.50102 27.26510 2.13070 5 3.77495e+00
5188 1 -2.95204 28.89490 0.63355 1 4.89169e-01
5191 1 -3.46087 31.11330 1.45759 1 6.88431e-01
6303 2 -0.67562 30.50760 0.64823 5 9.05586e+00
6255 2 2.11043 31.11400 1.45929 1 6.90644e-01
6306 2 1.60100 28.89570 0.63474 1 4.91296e-01
5249 1 -2.46370 0.38344 3.62350 5 5.33451e+00
5523 1 -0.67527 1.99556 3.60547 5 9.33137e+00
6254 2 1.11331 0.38394 3.62502 5 5.33145e+00
5250 1 -4.02597 4.49198 2.82797 1 1.62228e-01
5248 1 -2.80974 2.88953 4.29417 1 1.98535e-01
5524 1 -0.67539 4.39531 4.31712 5 6.10766e+00
6269 2 1.45885 2.89013 4.29552 1 1.98348e-01
6267 2 2.67507 4.49279 2.82965 1 1.62820e-01
5231 1 -4.39444 6.77002 3.59148 1 1.32516e-01
5233 1 -2.95204 5.28199 4.94465 1 4.89164e-01
5252 1 -1.91573 6.04393 2.77991 5 4.31556e+00
5993 2 -0.67562 6.89474 4.95933 5 9.05592e+00
6265 2 0.56478 6.04487 2.78078 5 4.31943e+00
6266 2 1.60100 5.28283 4.94585 1 4.91295e-01
6268 2 3.04392 6.77070 3.59338 1 1.33448e-01
5237 1 -2.46370 8.25440 3.62350 5 5.33451e+00
5520 1 -0.67527 9.86652 3.60547 5 9.33137e+00
6262 2 1.11331 8.25490 3.62502 5 5.33145e+00
5238 1 -4.02597 12.36290 2.82797 1 1.62228e-01
5236 1 -2.80974 10.76050 4.29417 1 1.98535e-01
5521 1 -0.67539 12.26630 4.31712 5 6.10766e+00
6287 2 1.45885 10.76110 4.29552 1 1.98348e-01
6285 2 2.67507 12.36370 2.82965 1 1.62820e-01
5209 1 -4.39444 14.64100 3.59148 1 1.32516e-01
5211 1 -2.95204 13.15290 4.94465 1 4.89164e-01
5240 1 -1.91573 13.91490 2.77991 5 4.31556e+00
5997 2 -0.67562 14.76570 4.95933 5 9.05592e+00
6283 2 0.56478 13.91580 2.78078 5 4.31943e+00
6284 2 1.60100 13.15380 4.94585 1 4.91295e-01
6286 2 3.04392 14.64170 3.59338 1 1.33448e-01
5215 1 -2.46370 16.12540 3.62350 5 5.33451e+00
5510 1 -0.67527 17.73750 3.60547 5 9.33137e+00
6280 2 1.11331 16.12590 3.62502 5 5.33145e+00
5216 1 -4.02597 20.23390 2.82797 1 1.62228e-01
5214 1 -2.80974 18.63150 4.29417 1 1.98535e-01
5511 1 -0.67539 20.13720 4.31712 5 6.10766e+00
6315 2 1.45885 18.63200 4.29552 1 1.98348e-01
6313 2 2.67507 20.23470 2.82965 1 1.62820e-01
5180 1 -4.39444 22.51190 3.59148 1 1.32516e-01
5182 1 -2.95204 21.02390 4.94465 1 4.89164e-01
5218 1 -1.91573 21.78580 2.77991 5 4.31556e+00
6010 2 -0.67562 22.63670 4.95933 5 9.05592e+00
6311 2 0.56478 21.78680 2.78078 5 4.31943e+00
6312 2 1.60100 21.02470 4.94585 1 4.91295e-01
6314 2 3.04392 22.51260 3.59338 1 1.33448e-01
5186 1 -2.46370 23.99630 3.62350 5 5.33451e+00
5491 1 -0.67527 25.60840 3.60547 5 9.33137e+00
6308 2 1.11331 23.99680 3.62502 5 5.33145e+00
5187 1 -4.02597 28.10490 2.82797 1 1.62228e-01
5185 1 -2.80974 26.50240 4.29417 1 1.98535e-01
5492 1 -0.67539 28.00820 4.31712 5 6.10766e+00
6345 2 1.45885 26.50300 4.29552 1 1.98348e-01
6343 2 2.67507 28.10570 2.82965 1 1.62820e-01
5150 1 -4.39444 30.38290 3.59148 1 1.32516e-01
5152 1 -2.95204 28.89490 4.94465 1 4.89164e-01
5189 1 -1.91573 29.65680 2.77991 5 4.31556e+00
6033 2 -0.67562 30.50760 4.95933 5 9.05592e+00
6341 2 0.56478 29.65770 2.78078 5 4.31943e+00
6342 2 1.60100 28.89570 4.94585 1 4.91295e-01
6344 2 3.04392 30.38360 3.59338 1 1.33448e-01
5229 1 -3.82420 2.08864 6.50672 1 1.87831e-01
5512 1 -2.46370 0.38344 7.93460 5 5.33452e+00
5522 1 -1.77825 1.25227 5.77357 5 8.15425e+00
5517 1 -0.67527 1.99556 7.91658 5 9.33136e+00
5994 2 0.42760 1.25265 5.77484 5 8.15603e+00
5996 2 1.11331 0.38394 7.93612 5 5.33146e+00
6270 2 2.47339 2.08936 6.50842 1 1.87699e-01
5228 1 -4.02597 4.49198 7.13907 1 1.62228e-01
5515 1 -1.85174 3.65142 6.44083 5 3.77541e+00
5995 2 0.50102 3.65226 6.44180 5 3.77496e+00
6295 2 2.67507 4.49279 7.14075 1 1.62820e-01
5203 1 -4.39444 6.77002 7.90258 1 1.32516e-01
5232 1 -3.46086 7.50047 5.76869 1 6.88412e-01
5518 1 -1.91573 6.04393 7.09101 5 4.31556e+00
6001 2 0.56478 6.04487 7.09188 5 4.31942e+00
6291 2 2.11042 7.50111 5.77039 1 6.90624e-01
6292 2 3.04392 6.77070 7.90449 1 1.33448e-01
5207 1 -3.82420 9.95960 6.50672 1 1.87831e-01
5502 1 -2.46370 8.25440 7.93460 5 5.33452e+00
5519 1 -1.77825 9.12323 5.77357 5 8.15425e+00
5507 1 -0.67527 9.86652 7.91658 5 9.33136e+00
5998 2 0.42760 9.12361 5.77484 5 8.15603e+00
6002 2 1.11331 8.25490 7.93612 5 5.33146e+00
6288 2 2.47339 9.96032 6.50842 1 1.87699e-01
5206 1 -4.02597 12.36290 7.13907 1 1.62228e-01
5505 1 -1.85174 11.52240 6.44083 5 3.77541e+00
5999 2 0.50102 11.52320 6.44180 5 3.77496e+00
6323 2 2.67507 12.36370 7.14075 1 1.62820e-01
5174 1 -4.39444 14.64100 7.90258 1 1.32516e-01
5210 1 -3.46086 15.37140 5.76869 1 6.88412e-01
5508 1 -1.91573 13.91490 7.09101 5 4.31556e+00
6014 2 0.56478 13.91580 7.09188 5 4.31942e+00
6319 2 2.11042 15.37210 5.77039 1 6.90624e-01
6320 2 3.04392 14.64170 7.90449 1 1.33448e-01
5178 1 -3.82420 17.83060 6.50672 1 1.87831e-01
5483 1 -2.46370 16.12540 7.93460 5 5.33452e+00
5509 1 -1.77825 16.99420 5.77357 5 8.15425e+00
5488 1 -0.67527 17.73750 7.91658 5 9.33136e+00
6011 2 0.42760 16.99460 5.77484 5 8.15603e+00
6015 2 1.11331 16.12590 7.93612 5 5.33146e+00
6316 2 2.47339 17.83130 6.50842 1 1.87699e-01
5177 1 -4.02597 20.23390 7.13907 1 1.62228e-01
5486 1 -1.85174 19.39330 6.44083 5 3.77541e+00
6012 2 0.50102 19.39420 6.44180 5 3.77496e+00
6353 2 2.67507 20.23470 7.14075 1 1.62820e-01
5144 1 -4.39444 22.51190 7.90258 1 1.32516e-01
5181 1 -3.46086 23.24240 5.76869 1 6.88412e-01
5489 1 -1.91573 21.78580 7.09101 5 4.31556e+00
6037 2 0.56478 21.78680 7.09188 5 4.31942e+00
6349 2 2.11042 23.24300 5.77039 1 6.90624e-01
6350 2 3.04392 22.51260 7.90449 1 1.33448e-01
5148 1 -3.82420 25.70150 6.50672 1 1.87831e-01
5457 1 -2.46370 23.99630 7.93460 5 5.33452e+00
5490 1 -1.77825 24.86510 5.77357 5 8.15425e+00
5462 1 -0.67527 25.60840 7.91658 5 9.33136e+00
6034 2 0.42760 24.86550 5.77484 5 8.15603e+00
6038 2 1.11331 23.99680 7.93612 5 5.33146e+00
6346 2 2.47339 25.70220 6.50842 1 1.87699e-01
5147 1 -4.02597 28.10490 7.13907 1 1.62228e-01
5460 1 -1.85174 27.26430 6.44083 5 3.77541e+00
6035 2 0.50102 27.26510 6.44180 5 3.77496e+00
6383 2 2.67507 28.10570 7.14075 1 1.62820e-01
5112 1 -4.39444 30.38290 7.90258 1 1.32516e-01
5151 1 -3.46086 31.11330 5.76869 1 6.88412e-01
5463 1 -1.91573 29.65680 7.09101 5 4.31556e+00
6067 2 0.56478 29.65770 7.09188 5 4.31942e+00
6273 2 2.11042 31.11400 5.77039 1 6.90624e-01
6381 2 3.04392 30.38360 7.90449 1 1.33448e-01
5494 1 -3.82420 2.08864 10.81780 1 1.87827e-01
5513 1 -1.77825 1.25227 10.08470 5 8.15426e+00
6006 2 0.42761 1.25265 10.08590 5 8.15603e+00
6009 2 2.47339 2.08936 10.81950 1 1.87696e-01
5500 1 -1.85174 3.65142 10.75190 5 3.77540e+00
5514 1 -2.80974 2.88953 8.60527 1 1.98534e-01
5516 1 -0.67539 4.39531 8.62822 5 6.10766e+00
6003 2 0.50102 3.65226 10.75290 5 3.77495e+00
6004 2 1.45885 2.89012 8.60662 1 1.98347e-01
5498 1 -2.95204 5.28199 9.25575 1 4.89165e-01
5501 1 -3.46086 7.50047 10.07980 1 6.88414e-01
6000 2 -0.67562 6.89474 9.27043 5 9.05592e+00
6005 2 1.60100 5.28283 9.25695 1 4.91294e-01
6021 2 2.11043 7.50111 10.08150 1 6.90627e-01
5475 1 -3.82420 9.95960 10.81780 1 1.87827e-01
5503 1 -1.77825 9.12323 10.08470 5 8.15426e+00
6019 2 0.42761 9.12361 10.08590 5 8.15603e+00
6022 2 2.47339 9.96032 10.81950 1 1.87696e-01
5481 1 -1.85174 11.52240 10.75190 5 3.77540e+00
5504 1 -2.80974 10.76050 8.60527 1 1.98534e-01
5506 1 -0.67539 12.26630 8.62822 5 6.10766e+00
6016 2 0.50102 11.52320 10.75290 5 3.77495e+00
6017 2 1.45885 10.76110 8.60662 1 1.98347e-01
5479 1 -2.95204 13.15290 9.25575 1 4.89165e-01
5482 1 -3.46086 15.37140 10.07980 1 6.88414e-01
6013 2 -0.67562 14.76570 9.27043 5 9.05592e+00
6018 2 1.60100 13.15380 9.25695 1 4.91294e-01
6044 2 2.11043 15.37210 10.08150 1 6.90627e-01
5449 1 -3.82420 17.83060 10.81780 1 1.87827e-01
5484 1 -1.77825 16.99420 10.08470 5 8.15426e+00
6042 2 0.42761 16.99460 10.08590 5 8.15603e+00
6045 2 2.47339 17.83130 10.81950 1 1.87696e-01
5455 1 -1.85174 19.39330 10.75190 5 3.77540e+00
5485 1 -2.80974 18.63150 8.60527 1 1.98534e-01
5487 1 -0.67539 20.13720 8.62822 5 6.10766e+00
6039 2 0.50102 19.39420 10.75290 5 3.77495e+00
6040 2 1.45885 18.63200 8.60662 1 1.98347e-01
5453 1 -2.95204 21.02390 9.25575 1 4.89165e-01
5456 1 -3.46086 23.24240 10.07980 1 6.88414e-01
6036 2 -0.67562 22.63670 9.27043 5 9.05592e+00
6041 2 1.60100 21.02470 9.25695 1 4.91294e-01
6073 2 2.11043 23.24300 10.08150 1 6.90627e-01
5420 1 -3.82420 25.70150 10.81780 1 1.87827e-01
5458 1 -1.77825 24.86520 10.08470 5 8.15426e+00
6071 2 0.42760 24.86550 10.08590 5 8.15603e+00
6074 2 2.47339 25.70220 10.81950 1 1.87696e-01
5426 1 -1.85174 27.26430 10.75190 5 3.77540e+00
5459 1 -2.80974 26.50240 8.60527 1 1.98534e-01
5461 1 -0.67539 28.00820 8.62822 5 6.10766e+00
6068 2 0.50102 27.26510 10.75290 5 3.77495e+00
6069 2 1.45885 26.50300 8.60662 1 1.98347e-01
5424 1 -2.95204 28.89490 9.25575 1 4.89165e-01
5427 1 -3.46086 31.11330 10.07980 1 6.88414e-01
6066 2 -0.67562 30.50760 9.27043 5 9.05592e+00
6008 2 2.11043 31.11400 10.08150 1 6.90627e-01
6070 2 1.60100 28.89570 9.25695 1 4.91294e-01
5496 1 -2.46370 0.38345 12.24570 5 5.33454e+00
5691 1 -0.67527 1.99557 12.22770 5 9.33144e+00
6007 2 1.11331 0.38394 12.24720 5 5.33149e+00
5497 1 -4.02597 4.49198 11.45020 1 1.62229e-01
5495 1 -2.80974 2.88953 12.91640 1 1.98541e-01
5692 1 -0.67539 4.39531 12.93930 5 6.10768e+00
6027 2 1.45885 2.89012 12.91770 1 1.98354e-01
6025 2 2.67507 4.49279 11.45190 1 1.62821e-01
5471 1 -4.39444 6.77002 12.21370 1 1.32515e-01
5473 1 -2.95204 5.28199 13.56690 1 4.89156e-01
5499 1 -1.91574 6.04393 11.40210 5 4.31555e+00
5833 2 -0.67562 6.89474 13.58150 5 9.05608e+00
6023 2 0.56478 6.04487 11.40300 5 4.31941e+00
6024 2 1.60100 5.28283 13.56800 1 4.91289e-01
6026 2 3.04392 6.77070 12.21560 1 1.33447e-01
5477 1 -2.46370 8.25440 12.24570 5 5.33454e+00
5688 1 -0.67527 9.86652 12.22770 5 9.33144e+00
6020 2 1.11331 8.25490 12.24720 5 5.33149e+00
5478 1 -4.02597 12.36290 11.45020 1 1.62229e-01
5476 1 -2.80974 10.76050 12.91640 1 1.98541e-01
5689 1 -0.67539 12.26630 12.93930 5 6.10768e+00
6050 2 1.45885 10.76110 12.91770 1 1.98354e-01
6048 2 2.67507 12.36380 11.45190 1 1.62821e-01
5445 1 -4.39444 14.64100 12.21370 1 1.32515e-01
5447 1 -2.95204 13.15290 13.56690 1 4.89156e-01
5480 1 -1.91574 13.91490 11.40210 5 4.31555e+00
5837 2 -0.67562 14.76570 13.58150 5 9.05608e+00
6046 2 0.56478 13.91580 11.40300 5 4.31941e+00
6047 2 1.60100 13.15380 13.56800 1 4.91289e-01
6049 2 3.04392 14.64170 12.21560 1 1.33447e-01
5451 1 -2.46370 16.12540 12.24570 5 5.33454e+00
5678 1 -0.67527 17.73750 12.22770 5 9.33144e+00
6043 2 1.11331 16.12590 12.24720 5 5.33149e+00
5452 1 -4.02597 20.23390 11.45020 1 1.62229e-01
5450 1 -2.80974 18.63140 12.91640 1 1.98541e-01
5679 1 -0.67539 20.13720 12.93930 5 6.10768e+00
6079 2 1.45885 18.63200 12.91770 1 1.98354e-01
6077 2 2.67507 20.23470 11.45190 1 1.62821e-01
5416 1 -4.39444 22.51190 12.21370 1 1.32515e-01
5418 1 -2.95204 21.02390 13.56690 1 4.89156e-01
5454 1 -1.91574 21.78580 11.40210 5 4.31555e+00
5850 2 -0.67562 22.63670 13.58150 5 9.05608e+00
6075 2 0.56478 21.78680 11.40300 5 4.31941e+00
6076 2 1.60100 21.02470 13.56800 1 4.91289e-01
6078 2 3.04392 22.51260 12.21560 1 1.33447e-01
5422 1 -2.46370 23.99630 12.24570 5 5.33454e+00
5659 1 -0.67527 25.60840 12.22770 5 9.33144e+00
6072 2 1.11331 23.99680 12.24720 5 5.33149e+00
5423 1 -4.02597 28.10490 11.45020 1 1.62229e-01
5421 1 -2.80974 26.50240 12.91640 1 1.98541e-01
5660 1 -0.67539 28.00820 12.93930 5 6.10768e+00
6109 2 1.45885 26.50300 12.91770 1 1.98354e-01
6107 2 2.67507 28.10570 11.45190 1 1.62821e-01
5386 1 -4.39444 30.38290 12.21370 1 1.32515e-01
5388 1 -2.95204 28.89490 13.56690 1 4.89156e-01
5425 1 -1.91574 29.65680 11.40210 5 4.31555e+00
5873 2 -0.67562 30.50760 13.58150 5 9.05608e+00
6105 2 0.56478 29.65770 11.40300 5 4.31941e+00
6106 2 1.60100 28.89570 13.56800 1 4.91289e-01
6108 2 3.04392 30.38360 12.21560 1 1.33447e-01
5469 1 -3.82419 2.08864 15.12890 1 1.87787e-01
5690 1 -1.77829 1.25227 14.39580 5 8.15425e+00
5834 2 0.42764 1.25265 14.39700 5 8.15602e+00
6028 2 2.47338 2.08935 15.13060 1 1.87656e-01
5468 1 -4.02597 4.49198 15.76130 1 1.62227e-01
5683 1 -1.85174 3.65141 15.06300 5 3.77543e+00
5835 2 0.50102 3.65226 15.06400 5 3.77497e+00
6058 2 2.67507 4.49279 15.76300 1 1.62820e-01
5472 1 -3.46086 7.50048 14.39090 1 6.88365e-01
5686 1 -1.91573 6.04393 15.71320 5 4.31554e+00
5841 2 0.56478 6.04487 15.71410 5 4.31940e+00
6054 2 2.11042 7.50112 14.39260 1 6.90579e-01
5443 1 -3.82419 9.95960 15.12890 1 1.87787e-01
5687 1 -1.77829 9.12323 14.39580 5 8.15425e+00
5838 2 0.42764 9.12361 14.39700 5 8.15602e+00
6051 2 2.47338 9.96031 15.13060 1 1.87656e-01
5442 1 -4.02597 12.36290 15.76130 1 1.62227e-01
5673 1 -1.85174 11.52240 15.06300 5 3.77543e+00
5839 2 0.50102 11.52320 15.06400 5 3.77497e+00
6087 2 2.67507 12.36380 15.76300 1 1.62820e-01
5446 1 -3.46086 15.37140 14.39090 1 6.88364e-01
5676 1 -1.91573 13.91490 15.71320 5 4.31554e+00
5854 2 0.56478 13.91580 15.71410 5 4.31940e+00
6083 2 2.11042 15.37210 14.39260 1 6.90579e-01
5414 1 -3.82419 17.83060 15.12890 1 1.87787e-01
5677 1 -1.77829 16.99420 14.39580 5 8.15425e+00
5851 2 0.42764 16.99460 14.39700 5 8.15602e+00
6080 2 2.47338 17.83130 15.13060 1 1.87656e-01
5413 1 -4.02597 20.23390 15.76130 1 1.62227e-01
5654 1 -1.85174 19.39330 15.06300 5 3.77543e+00
5852 2 0.50102 19.39420 15.06400 5 3.77497e+00
6117 2 2.67507 20.23470 15.76300 1 1.62820e-01
5417 1 -3.46086 23.24240 14.39090 1 6.88365e-01
5657 1 -1.91573 21.78580 15.71320 5 4.31554e+00
5877 2 0.56478 21.78680 15.71410 5 4.31940e+00
6113 2 2.11042 23.24300 14.39260 1 6.90579e-01
5384 1 -3.82419 25.70150 15.12890 1 1.87787e-01
5658 1 -1.77829 24.86510 14.39580 5 8.15425e+00
5874 2 0.42764 24.86550 14.39700 5 8.15602e+00
6110 2 2.47338 25.70220 15.13060 1 1.87656e-01
5383 1 -4.02597 28.10490 15.76130 1 1.62227e-01
5628 1 -1.85174 27.26430 15.06300 5 3.77543e+00
5875 2 0.50102 27.26510 15.06400 5 3.77497e+00
6147 2 2.67507 28.10570 15.76300 1 1.62820e-01
5387 1 -3.46086 31.11340 14.39090 1 6.88365e-01
5631 1 -1.91573 29.65680 15.71320 5 4.31554e+00
5907 2 0.56478 29.65770 15.71410 5 4.31940e+00
6031 2 2.11042 31.11400 14.39260 1 6.90579e-01
5680 1 -2.46370 0.38345 16.55680 5 5.33457e+00
5681 1 -1.77829 1.25227 18.70690 5 8.15425e+00
5685 1 -0.67527 1.99557 16.53880 5 9.33139e+00
5836 2 1.11331 0.38395 16.55830 5 5.33150e+00
5846 2 0.42764 1.25265 18.70810 5 8.15602e+00
5682 1 -2.80974 2.88953 17.22750 1 1.98538e-01
5684 1 -0.67539 4.39531 17.25040 5 6.10768e+00
5844 2 1.45885 2.89012 17.22880 1 1.98349e-01
5439 1 -4.39444 6.77002 16.52480 1 1.32514e-01
5666 1 -2.95204 5.28199 17.87800 1 4.89161e-01
5669 1 -3.46086 7.50047 18.70200 1 6.88377e-01
5840 2 -0.67562 6.89474 17.89260 5 9.05605e+00
5845 2 1.60100 5.28283 17.87920 1 4.91291e-01
5861 2 2.11042 7.50112 18.70370 1 6.90586e-01
6055 2 3.04392 6.77070 16.52670 1 1.33448e-01
5670 1 -2.46370 8.25441 16.55680 5 5.33457e+00
5671 1 -1.77829 9.12323 18.70690 5 8.15425e+00
5675 1 -0.67527 9.86653 16.53880 5 9.33139e+00
5842 2 1.11331 8.25491 16.55830 5 5.33150e+00
5859 2 0.42764 9.12361 18.70810 5 8.15602e+00
5672 1 -2.80974 10.76050 17.22750 1 1.98538e-01
5674 1 -0.67539 12.26630 17.25040 5 6.10768e+00
5857 2 1.45885 10.76110 17.22880 1 1.98349e-01
5410 1 -4.39444 14.64100 16.52480 1 1.32514e-01
5647 1 -2.95204 13.15290 17.87800 1 4.89161e-01
5650 1 -3.46086 15.37140 18.70200 1 6.88377e-01
5853 2 -0.67562 14.76570 17.89260 5 9.05605e+00
5858 2 1.60100 13.15380 17.87920 1 4.91291e-01
5884 2 2.11042 15.37210 18.70370 1 6.90586e-01
6084 2 3.04392 14.64170 16.52670 1 1.33448e-01
5651 1 -2.46370 16.12540 16.55680 5 5.33457e+00
5652 1 -1.77829 16.99420 18.70690 5 8.15425e+00
5656 1 -0.67527 17.73750 16.53880 5 9.33139e+00
5855 2 1.11331 16.12590 16.55830 5 5.33150e+00
5882 2 0.42764 16.99460 18.70810 5 8.15602e+00
5653 1 -2.80974 18.63150 17.22750 1 1.98538e-01
5655 1 -0.67539 20.13720 17.25040 5 6.10768e+00
5880 2 1.45885 18.63200 17.22880 1 1.98349e-01
5380 1 -4.39444 22.51190 16.52480 1 1.32514e-01
5621 1 -2.95204 21.02390 17.87800 1 4.89161e-01
5624 1 -3.46086 23.24240 18.70200 1 6.88377e-01
5876 2 -0.67562 22.63670 17.89260 5 9.05605e+00
5881 2 1.60100 21.02470 17.87920 1 4.91291e-01
5913 2 2.11042 23.24300 18.70370 1 6.90586e-01
6114 2 3.04392 22.51260 16.52670 1 1.33448e-01
5625 1 -2.46370 23.99630 16.55680 5 5.33457e+00
5626 1 -1.77829 24.86510 18.70690 5 8.15425e+00
5630 1 -0.67527 25.60840 16.53880 5 9.33139e+00
5878 2 1.11331 23.99680 16.55830 5 5.33150e+00
5911 2 0.42764 24.86550 18.70810 5 8.15602e+00
5627 1 -2.80974 26.50240 17.22750 1 1.98538e-01
5629 1 -0.67539 28.00820 17.25040 5 6.10768e+00
5909 2 1.45885 26.50300 17.22880 1 1.98349e-01
5348 1 -4.39444 30.38290 16.52480 1 1.32514e-01
5592 1 -2.95204 28.89490 17.87800 1 4.89161e-01
5595 1 -3.46086 31.11340 18.70200 1 6.88377e-01
5906 2 -0.67562 30.50760 17.89260 5 9.05605e+00
5848 2 2.11042 31.11400 18.70370 1 6.90586e-01
5910 2 1.60100 28.89570 17.87920 1 4.91291e-01
6145 2 3.04392 30.38360 16.52670 1 1.33448e-01
5662 1 -3.82419 2.08864 19.44000 1 1.87792e-01
5664 1 -2.46370 0.38345 20.86790 5 5.33456e+00
5763 1 -0.67527 1.99557 20.84990 5 9.33138e+00
5847 2 1.11331 0.38394 20.86940 5 5.33150e+00
5849 2 2.47338 2.08935 19.44170 1 1.87660e-01
5665 1 -4.02597 4.49198 20.07240 1 1.62228e-01
5663 1 -2.80974 2.88953 21.53860 1 1.98537e-01
5668 1 -1.85174 3.65141 19.37410 5 3.77542e+00
5764 1 -0.67539 4.39531 21.56150 5 6.10768e+00
5843 2 0.50102 3.65226 19.37510 5 3.77496e+00
5867 2 1.45885 2.89012 21.53990 1 1.98350e-01
5865 2 2.67507 4.49279 20.07410 1 1.62819e-01
5639 1 -4.39444 6.77002 20.83590 1 1.32516e-01
5667 1 -1.91573 6.04393 20.02430 5 4.31555e+00
5863 2 0.56478 6.04487 20.02520 5 4.31940e+00
5866 2 3.04392 6.77070 20.83780 1 1.33447e-01
5643 1 -3.82419 9.95960 19.44000 1 1.87792e-01
5645 1 -2.46370 8.25441 20.86790 5 5.33456e+00
5760 1 -0.67527 9.86652 20.84990 5 9.33138e+00
5860 2 1.11331 8.25490 20.86940 5 5.33150e+00
5862 2 2.47338 9.96031 19.44170 1 1.87660e-01
5646 1 -4.02597 12.36290 20.07240 1 1.62228e-01
5644 1 -2.80974 10.76050 21.53860 1 1.98537e-01
5649 1 -1.85174 11.52240 19.37410 5 3.77542e+00
5761 1 -0.67539 12.26630 21.56150 5 6.10768e+00
5856 2 0.50102 11.52320 19.37510 5 3.77496e+00
5890 2 1.45885 10.76110 21.53990 1 1.98350e-01
5888 2 2.67507 12.36380 20.07410 1 1.62819e-01
5613 1 -4.39444 14.64100 20.83590 1 1.32516e-01
5648 1 -1.91573 13.91490 20.02430 5 4.31555e+00
5886 2 0.56478 13.91580 20.02520 5 4.31940e+00
5889 2 3.04392 14.64170 20.83780 1 1.33447e-01
5617 1 -3.82419 17.83060 19.44000 1 1.87792e-01
5619 1 -2.46370 16.12540 20.86790 5 5.33456e+00
5750 1 -0.67527 17.73750 20.84990 5 9.33138e+00
5883 2 1.11331 16.12590 20.86940 5 5.33150e+00
5885 2 2.47338 17.83130 19.44170 1 1.87660e-01
5620 1 -4.02597 20.23390 20.07240 1 1.62228e-01
5618 1 -2.80974 18.63150 21.53860 1 1.98537e-01
5623 1 -1.85174 19.39330 19.37410 5 3.77542e+00
5751 1 -0.67539 20.13720 21.56150 5 6.10768e+00
5879 2 0.50102 19.39420 19.37510 5 3.77496e+00
5919 2 1.45885 18.63200 21.53990 1 1.98350e-01
5917 2 2.67507 20.23470 20.07410 1 1.62819e-01
5584 1 -4.39444 22.51190 20.83590 1 1.32516e-01
5622 1 -1.91573 21.78580 20.02430 5 4.31555e+00
5915 2 0.56478 21.78680 20.02520 5 4.31940e+00
5918 2 3.04392 22.51260 20.83780 1 1.33447e-01
5588 1 -3.82419 25.70150 19.44000 1 1.87792e-01
5590 1 -2.46370 23.99630 20.86790 5 5.33456e+00
5733 1 -0.67527 25.60840 20.84990 5 9.33138e+00
5912 2 1.11331 23.99680 20.86940 5 5.33150e+00
5914 2 2.47338 25.70220 19.44170 1 1.87660e-01
5591 1 -4.02597 28.10490 20.07240 1 1.62228e-01
5589 1 -2.80974 26.50240 21.53860 1 1.98537e-01
5594 1 -1.85174 27.26430 19.37410 5 3.77542e+00
5734 1 -0.67539 28.00820 21.56150 5 6.10768e+00
5908 2 0.50102 27.26510 19.37510 5 3.77496e+00
5946 2 1.45885 26.50300 21.53990 1 1.98350e-01
5944 2 2.67507 28.10570 20.07410 1 1.62819e-01
5561 1 -4.39444 30.38290 20.83590 1 1.32516e-01
5593 1 -1.91573 29.65680 20.02430 5 4.31555e+00
5942 2 0.56478 29.65770 20.02520 5 4.31940e+00
5945 2 3.04392 30.38360 20.83780 1 1.33447e-01
5637 1 -3.82419 2.08864 23.75110 1 1.87798e-01
5762 1 -1.77828 1.25227 23.01800 5 8.15425e+00
5770 2 0.42763 1.25265 23.01930 5 8.15602e+00
5868 2 2.47338 2.08935 23.75280 1 1.87667e-01
5636 1 -4.02597 4.49198 24.38350 1 1.62227e-01
5755 1 -1.85174 3.65141 23.68520 5 3.77542e+00
5771 2 0.50102 3.65226 23.68620 5 3.77497e+00
5898 2 2.67507 4.49279 24.38520 1 1.62819e-01
5640 1 -3.46086 7.50047 23.01310 1 6.88381e-01
5641 1 -2.95204 5.28199 22.18910 1 4.89162e-01
5758 1 -1.91573 6.04393 24.33540 5 4.31555e+00
5769 2 -0.67562 6.89474 22.20370 5 9.05604e+00
5777 2 0.56478 6.04487 24.33630 5 4.31941e+00
5864 2 1.60100 5.28283 22.19030 1 4.91289e-01
5894 2 2.11042 7.50112 23.01480 1 6.90592e-01
5611 1 -3.82419 9.95960 23.75110 1 1.87798e-01
5759 1 -1.77828 9.12323 23.01800 5 8.15425e+00
5774 2 0.42763 9.12361 23.01930 5 8.15602e+00
5891 2 2.47338 9.96031 23.75280 1 1.87667e-01
5610 1 -4.02597 12.36290 24.38350 1 1.62227e-01
5745 1 -1.85174 11.52240 23.68520 5 3.77542e+00
5775 2 0.50102 11.52320 23.68620 5 3.77497e+00
5927 2 2.67507 12.36380 24.38520 1 1.62819e-01
5614 1 -3.46086 15.37140 23.01310 1 6.88381e-01
5615 1 -2.95204 13.15290 22.18910 1 4.89162e-01
5748 1 -1.91573 13.91490 24.33540 5 4.31555e+00
5773 2 -0.67562 14.76570 22.20370 5 9.05604e+00
5790 2 0.56478 13.91580 24.33630 5 4.31941e+00
5887 2 1.60100 13.15380 22.19030 1 4.91289e-01
5923 2 2.11042 15.37210 23.01480 1 6.90592e-01
5582 1 -3.82419 17.83060 23.75110 1 1.87798e-01
5749 1 -1.77828 16.99420 23.01800 5 8.15425e+00
5787 2 0.42763 16.99460 23.01930 5 8.15602e+00
5920 2 2.47338 17.83130 23.75280 1 1.87667e-01
5581 1 -4.02597 20.23390 24.38350 1 1.62227e-01
5728 1 -1.85174 19.39330 23.68520 5 3.77542e+00
5788 2 0.50102 19.39420 23.68620 5 3.77497e+00
5954 2 2.67507 20.23470 24.38520 1 1.62819e-01
5585 1 -3.46086 23.24240 23.01310 1 6.88381e-01
5586 1 -2.95204 21.02390 22.18910 1 4.89162e-01
5731 1 -1.91573 21.78580 24.33540 5 4.31555e+00
5786 2 -0.67562 22.63670 22.20370 5 9.05604e+00
5806 2 0.56478 21.78680 24.33630 5 4.31941e+00
5916 2 1.60100 21.02470 22.19030 1 4.91289e-01
5950 2 2.11042 23.24300 23.01480 1 6.90592e-01
5559 1 -3.82419 25.70150 23.75110 1 1.87798e-01
5732 1 -1.77828 24.86510 23.01800 5 8.15425e+00
5803 2 0.42763 24.86550 23.01930 5 8.15602e+00
5947 2 2.47338 25.70220 23.75280 1 1.87667e-01
5558 1 -4.02597 28.10490 24.38350 1 1.62227e-01
5713 1 -1.85174 27.26430 23.68520 5 3.77542e+00
5804 2 0.50102 27.26510 23.68620 5 3.77497e+00
5971 2 2.67507 28.10570 24.38520 1 1.62819e-01
5562 1 -3.46086 31.11340 23.01310 1 6.88381e-01
5563 1 -2.95204 28.89490 22.18910 1 4.89162e-01
5716 1 -1.91573 29.65680 24.33540 5 4.31555e+00
5802 2 -0.67562 30.50760 22.20370 5 9.05604e+00
5819 2 0.56478 29.65770 24.33630 5 4.31941e+00
5871 2 2.11042 31.11400 23.01480 1 6.90592e-01
5943 2 1.60100 28.89570 22.19030 1 4.91289e-01
5752 1 -2.46370 0.38345 25.17900 5 5.33455e+00
5753 1 -1.77827 1.25227 27.32910 5 8.15425e+00
5757 1 -0.67527 1.99556 25.16100 5 9.33135e+00
5772 2 1.11331 0.38394 25.18050 5 5.33149e+00
5782 2 0.42762 1.25265 27.33040 5 8.15603e+00
5754 1 -2.80974 2.88953 25.84970 1 1.98535e-01
5756 1 -0.67539 4.39531 25.87260 5 6.10767e+00
5780 2 1.45885 2.89012 25.85100 1 1.98348e-01
5607 1 -4.39444 6.77002 25.14700 1 1.32516e-01
5738 1 -2.95204 5.28199 26.50020 1 4.89164e-01
5741 1 -3.46086 7.50047 27.32420 1 6.88398e-01
5776 2 -0.67562 6.89474 26.51480 5 9.05598e+00
5781 2 1.60100 5.28283 26.50140 1 4.91293e-01
5797 2 2.11042 7.50112 27.32590 1 6.90609e-01
5895 2 3.04392 6.77070 25.14890 1 1.33447e-01
5742 1 -2.46370 8.25441 25.17900 5 5.33455e+00
5743 1 -1.77827 9.12323 27.32910 5 8.15425e+00
5747 1 -0.67527 9.86652 25.16100 5 9.33135e+00
5778 2 1.11331 8.25490 25.18050 5 5.33149e+00
5795 2 0.42762 9.12361 27.33040 5 8.15603e+00
5744 1 -2.80974 10.76050 25.84970 1 1.98535e-01
5746 1 -0.67539 12.26630 25.87260 5 6.10767e+00
5793 2 1.45885 10.76110 25.85100 1 1.98348e-01
5578 1 -4.39444 14.64100 25.14700 1 1.32516e-01
5721 1 -2.95204 13.15290 26.50020 1 4.89164e-01
5724 1 -3.46086 15.37140 27.32420 1 6.88398e-01
5789 2 -0.67562 14.76570 26.51480 5 9.05598e+00
5794 2 1.60100 13.15380 26.50140 1 4.91293e-01
5813 2 2.11042 15.37210 27.32590 1 6.90609e-01
5924 2 3.04392 14.64170 25.14890 1 1.33447e-01
5725 1 -2.46370 16.12540 25.17900 5 5.33455e+00
5726 1 -1.77827 16.99420 27.32910 5 8.15425e+00
5730 1 -0.67527 17.73750 25.16100 5 9.33135e+00
5791 2 1.11331 16.12590 25.18050 5 5.33149e+00
5811 2 0.42762 16.99460 27.33040 5 8.15603e+00
5727 1 -2.80974 18.63150 25.84970 1 1.98535e-01
5729 1 -0.67539 20.13720 25.87260 5 6.10767e+00
5809 2 1.45885 18.63200 25.85100 1 1.98348e-01
5555 1 -4.39444 22.51190 25.14700 1 1.32516e-01
5706 1 -2.95204 21.02390 26.50020 1 4.89164e-01
5709 1 -3.46086 23.24240 27.32420 1 6.88398e-01
5805 2 -0.67562 22.63670 26.51480 5 9.05598e+00
5810 2 1.60100 21.02470 26.50140 1 4.91293e-01
5825 2 2.11042 23.24300 27.32590 1 6.90609e-01
5951 2 3.04392 22.51260 25.14890 1 1.33447e-01
5710 1 -2.46370 23.99630 25.17900 5 5.33455e+00
5711 1 -1.77827 24.86510 27.32910 5 8.15425e+00
5715 1 -0.67527 25.60840 25.16100 5 9.33135e+00
5807 2 1.11331 23.99680 25.18050 5 5.33149e+00
5823 2 0.42762 24.86550 27.33040 5 8.15603e+00
5712 1 -2.80974 26.50240 25.84970 1 1.98535e-01
5714 1 -0.67539 28.00820 25.87260 5 6.10767e+00
5821 2 1.45885 26.50300 25.85100 1 1.98348e-01
5540 1 -4.39444 30.38290 25.14700 1 1.32516e-01
5698 1 -2.95204 28.89490 26.50020 1 4.89164e-01
5701 1 -3.46086 31.11330 27.32420 1 6.88398e-01
5818 2 -0.67562 30.50760 26.51480 5 9.05598e+00
5784 2 2.11042 31.11400 27.32590 1 6.90609e-01
5822 2 1.60100 28.89570 26.50140 1 4.91293e-01
5969 2 3.04392 30.38360 25.14890 1 1.33447e-01
5735 1 -3.82420 2.08864 28.06220 1 1.87815e-01
5736 1 -2.46370 0.38344 29.49010 5 5.33452e+00
5768 1 -0.67527 1.99556 29.47210 5 9.33131e+00
5783 2 1.11331 0.38394 29.49160 5 5.33146e+00
5785 2 2.47339 2.08936 28.06390 1 1.87684e-01
5737 1 -4.02597 4.49198 28.69460 1 1.62227e-01
5259 1 -2.80974 2.88953 30.16080 1 1.98532e-01
5740 1 -1.85174 3.65141 27.99630 5 3.77542e+00
5779 2 0.50102 3.65226 27.99730 5 3.77496e+00
6251 2 1.45885 2.89013 30.16210 1 1.98343e-01
5800 2 2.67507 4.49279 28.69630 1 1.62818e-01
5717 1 -4.39444 6.77002 29.45810 1 1.32517e-01
5739 1 -1.91573 6.04393 28.64650 5 4.31556e+00
5799 2 0.56478 6.04487 28.64740 5 4.31942e+00
5801 2 3.04392 6.77070 29.46000 1 1.33448e-01
5718 1 -3.82420 9.95960 28.06220 1 1.87815e-01
5719 1 -2.46370 8.25440 29.49010 5 5.33452e+00
5767 1 -0.67527 9.86652 29.47210 5 9.33131e+00
5796 2 1.11331 8.25490 29.49160 5 5.33146e+00
5798 2 2.47339 9.96032 28.06390 1 1.87684e-01
5720 1 -4.02597 12.36290 28.69460 1 1.62227e-01
5256 1 -2.80974 10.76050 30.16080 1 1.98532e-01
5723 1 -1.85174 11.52240 27.99630 5 3.77542e+00
5792 2 0.50102 11.52320 27.99730 5 3.77496e+00
6259 2 1.45885 10.76110 30.16210 1 1.98343e-01
5816 2 2.67507 12.36370 28.69630 1 1.62818e-01
5702 1 -4.39444 14.64100 29.45810 1 1.32517e-01
5722 1 -1.91573 13.91490 28.64650 5 4.31556e+00
5815 2 0.56478 13.91580 28.64740 5 4.31942e+00
5817 2 3.04392 14.64170 29.46000 1 1.33448e-01
5703 1 -3.82420 17.83060 28.06220 1 1.87815e-01
5704 1 -2.46370 16.12540 29.49010 5 5.33452e+00
5766 1 -0.67527 17.73750 29.47210 5 9.33131e+00
5812 2 1.11331 16.12590 29.49160 5 5.33146e+00
5814 2 2.47339 17.83130 28.06390 1 1.87684e-01
5705 1 -4.02597 20.23390 28.69460 1 1.62227e-01
5244 1 -2.80974 18.63150 30.16080 1 1.98532e-01
5708 1 -1.85174 19.39330 27.99630 5 3.77542e+00
5808 2 0.50102 19.39420 27.99730 5 3.77496e+00
6277 2 1.45885 18.63200 30.16210 1 1.98343e-01
5828 2 2.67507 20.23470 28.69630 1 1.62818e-01
5694 1 -4.39444 22.51190 29.45810 1 1.32517e-01
5707 1 -1.91573 21.78580 28.64650 5 4.31556e+00
5827 2 0.56478 21.78680 28.64740 5 4.31942e+00
5829 2 3.04392 22.51260 29.46000 1 1.33448e-01
5695 1 -3.82420 25.70150 28.06220 1 1.87815e-01
5696 1 -2.46370 23.99630 29.49010 5 5.33452e+00
5765 1 -0.67527 25.60840 29.47210 5 9.33131e+00
5824 2 1.11331 23.99680 29.49160 5 5.33146e+00
5826 2 2.47339 25.70220 28.06390 1 1.87684e-01
5697 1 -4.02597 28.10490 28.69460 1 1.62227e-01
5222 1 -2.80974 26.50240 30.16080 1 1.98532e-01